# vtk DataFile Version 1.0
Net Charge Density
ASCII
DATASET STRUCTURED_POINTS
DIMENSIONS 256 128 1
ORIGIN 0 0 0
SPACING 0.15625 0.15625 1
POINT_DATA 32768
SCALARS rhonet float
LOOKUP_TABLE default
-8.89963e-05
-0.00016443
6.73251e-05
0.000180923
3.86301e-06
0.000191473
3.31744e-05
-3.29301e-05
0.000211425
0.000204049
2.30235e-05
0.000279595
0.000127751
-0.000183836
-0.000216213
0.000243326
0.000142678
-9.87002e-05
-2.87003e-05
2.38951e-05
4.87687e-06
0.000126141
-8.77728e-05
5.35581e-05
9.73924e-05
2.47739e-05
7.28205e-05
7.3313e-05
0.000266094
4.45556e-05
-0.000187995
-0.000141228
0.00013852
0.000197821
4.20047e-05
0.000104592
0.000146124
-7.05899e-05
3.89592e-05
2.23198e-05
0.000178941
0.00013508
8.85102e-05
0.000102748
0.000125256
6.33765e-06
2.51115e-05
8.20985e-05
5.31508e-05
0.000119896
0.000161602
-1.1104e-05
0.00015061
0.00017972
-9.16778e-05
-3.29587e-05
-3.9999e-05
0.000187685
0.000135207
0.000108328
-0.000173156
0.000276285
0.000165612
-3.8438e-05
-0.000121113
5.01917e-05
-8.66069e-05
0.000157549
1.51981e-05
-7.60971e-05
-6.64494e-05
-0.000151567
-3.41681e-05
0.000301609
7.66139e-05
-4.76977e-05
6.83876e-05
0.000145776
6.34155e-05
1.53658e-05
-0.000111347
-6.43473e-05
0.000307742
0.000107895
0.000156533
0.000151515
0.00018837
-0.000153581
0.000203114
0.000314539
8.47189e-05
-5.67469e-05
3.65102e-06
4.21895e-05
-1.17712e-05
0.000185572
-6.01258e-05
9.25149e-05
-0.000105055
0.000513903
0.000181121
-4.06471e-05
0.000103039
-1.57757e-05
1.81864e-05
0.000185247
1.56633e-05
-3.30391e-05
3.95839e-05
-5.65076e-05
9.67319e-05
0.000135003
-7.10147e-05
-0.000116246
-0.000293087
-1.20508e-05
0.000196575
0.000161801
1.39733e-05
-0.000188641
5.74627e-05
1.23905e-05
6.46166e-05
4.70171e-05
1.39861e-05
-2.69525e-05
8.53452e-05
2.44342e-05
0.00018368
2.48257e-05
3.65498e-05
0.000122553
9.48429e-05
-3.01062e-05
9.04195e-05
5.78715e-05
0.00027915
0.000120273
0.000106484
-0.000217122
-4.58106e-06
6.54795e-05
-4.92623e-06
4.93007e-05
-3.99721e-05
0.00010235
0.00016881
-3.912e-05
3.76489e-05
0.000252592
-8.82364e-05
-4.8202e-05
0.000177523
0.000274355
0.000128818
6.23008e-05
0.000135928
8.18446e-06
4.77404e-05
6.06261e-05
0.000130789
0.000107803
-8.37161e-05
9.6577e-05
-5.18442e-05
-0.000102245
0.000160798
0.000218389
0.000229294
4.46853e-05
-5.02178e-05
-2.03296e-06
-6.93253e-06
-3.22646e-05
9.88855e-05
0.000118853
0.000188594
-3.82818e-05
-0.000114186
9.3081e-05
0.000170248
0.000170585
-5.99467e-05
-0.000114894
3.0112e-05
0.000124835
0.000147015
0.000125632
0.000105981
0.000260402
0.000187682
0.000105557
7.29117e-05
-8.07224e-05
-0.000155445
0.00030499
0.000208996
3.3515e-05
0.000190699
6.13416e-06
7.672e-06
1.51945e-05
0.000192278
8.82993e-05
-0.000104467
0.00014671
-5.7415e-05
-8.37923e-06
-8.24681e-05
0.000302362
-2.56733e-05
-0.00012002
0.000139211
0.000212545
-6.3742e-06
-5.47467e-05
3.51253e-05
5.77909e-05
4.46548e-05
0.000108325
-9.93178e-05
-0.000142599
0.000304249
8.57087e-05
-0.000139694
0.000208728
-8.71236e-05
6.99721e-05
-0.00020923
3.65509e-05
0.000211047
-0.000121397
-8.7827e-05
0.000243595
0.000104742
7.16866e-05
0.000175833
-8.4169e-05
0.000117093
0.000292926
3.00537e-05
-0.000198833
0.000113081
8.61069e-05
0.000117134
0.000126007
4.07926e-05
2.43268e-05
0.000117619
-7.49773e-06
6.64266e-05
-0.0001827
-1.10201e-05
-0.000116789
-5.03093e-05
0.000113211
9.38512e-05
7.10948e-06
-1.07242e-06
-0.000114283
1.30752e-05
-9.59644e-05
-0.00018783
-1.47219e-05
0.000141969
-0.000105543
-2.11766e-05
0.000159347
-6.05979e-05
-0.000104908
-0.000191294
-3.15248e-05
2.6787e-05
-8.83369e-05
2.81918e-05
6.03009e-05
-2.11125e-05
-0.000153984
-6.70936e-06
-0.000122243
-5.28992e-05
-0.000213783
8.63421e-05
2.43847e-05
1.32993e-06
-1.4683e-05
-4.76746e-05
0.000114568
-3.24087e-05
-5.61215e-06
-1.98614e-05
-3.69204e-05
-3.48256e-06
-0.000116264
-5.25555e-05
-1.2716e-06
-2.64923e-05
-0.000104853
-3.60259e-05
8.13329e-05
-0.000105781
-0.000144954
7.52914e-05
4.11213e-05
-2.63741e-05
3.98704e-05
-9.31575e-05
4.86262e-05
8.56351e-07
4.31878e-06
-0.000119127
-7.30148e-05
6.05757e-05
2.74993e-05
-0.000101009
6.03882e-05
-2.35743e-05
-0.000135273
-4.44613e-06
1.76304e-05
-0.000143069
5.91764e-05
-6.20307e-06
4.06075e-05
8.06632e-05
-7.99195e-05
3.64545e-05
-5.82082e-05
-9.32405e-06
5.90807e-05
4.19953e-05
3.69134e-05
-4.19624e-05
-5.43679e-05
3.41025e-05
-4.67335e-05
-0.0001537
-6.71796e-05
6.00313e-05
-4.68119e-05
-3.43905e-05
-8.82398e-05
4.5575e-05
-0.000176052
1.12819e-05
-0.00015407
-0.000127911
-9.47628e-05
-6.21465e-05
-4.80897e-05
5.24875e-05
-3.36813e-06
-0.000122984
4.30983e-05
-0.000154295
6.53999e-05
-0.00010901
-7.15223e-05
-5.46533e-05
0.000123682
-2.6908e-05
3.08175e-05
-0.000163153
0.000118408
-4.62127e-05
-0.000235137
-5.79358e-05
-7.17836e-05
-0.000163479
5.96765e-05
1.61468e-05
-7.24101e-05
2.98846e-05
-4.80521e-05
-4.58632e-05
-7.19614e-05
-3.38637e-05
-0.000109087
7.39484e-05
9.90361e-05
3.75016e-05
8.90734e-05
1.56958e-05
-6.02788e-05
2.84286e-05
-7.58183e-05
-6.37152e-05
0.000168835
-6.88588e-05
-0.000162257
2.27815e-05
1.59501e-06
-7.45539e-05
-0.000121427
-1.77731e-06
-0.000190662
0.000107859
0.000110056
-2.80041e-05
-1.88079e-05
-0.000179984
-8.35261e-05
9.67806e-05
8.11345e-06
6.51635e-05
0.000115119
-8.75531e-05
-5.66709e-05
4.48851e-05
-0.000137129
-9.15058e-05
-0.000117078
7.7781e-05
-6.1632e-05
-7.80418e-05
-4.3861e-05
6.1038e-05
-0.000105037
5.42327e-05
3.2816e-05
8.62766e-05
-5.3798e-05
-4.06357e-05
1.5685e-05
-4.02804e-05
-0.000211141
2.38111e-05
0.000203273
-1.50742e-05
4.13629e-05
-8.67897e-05
-6.52748e-05
3.89044e-05
-0.000102638
1.5123e-05
-4.9735e-05
-2.76992e-05
2.26517e-05
-3.52245e-05
-0.000176034
-0.000125342
-3.13101e-05
-3.65544e-07
-0.000170565
-4.75533e-05
-5.78193e-05
-0.000183783
-2.11983e-05
5.88746e-05
5.7416e-06
-3.58107e-05
-5.21971e-06
-8.0674e-05
-0.000193738
-0.000104422
-3.91724e-05
4.23496e-05
-9.05202e-05
-7.62016e-05
-8.52777e-06
0.00014616
-0.000152342
-5.96853e-05
9.52003e-05
-0.000116926
9.23373e-05
-9.78985e-05
-1.47186e-05
0.000151847
2.37796e-05
-7.937e-05
-2.8291e-05
-1.92884e-05
-2.44335e-05
-0.000142313
0.00010553
4.1811e-05
1.3664e-05
-1.15993e-05
-2.04685e-05
-2.06055e-07
-1.97634e-05
2.11208e-05
0.000109334
-0.000261438
4.28502e-05
4.00639e-05
-7.66999e-05
-6.17965e-05
-1.02731e-05
-0.000159574
-8.18932e-05
7.35668e-05
-4.22969e-05
9.23174e-06
-1.98818e-05
9.94629e-06
-8.87318e-07
-5.61636e-05
-3.99558e-05
-5.35056e-05
-0.000102719
9.00059e-05
-0.000219846
-0.000120905
-5.90219e-05
4.97608e-05
-3.80761e-05
-1.36707e-05
-2.83064e-06
-8.348e-05
1.19554e-05
-7.01746e-05
-3.17388e-05
1.34772e-05
5.83426e-05
-0.000137647
-8.99406e-05
0.000151387
1.51161e-05
-6.14044e-06
-0.000129065
3.11771e-05
0.000173844
-0.000137103
4.4345e-05
0.000100966
9.51393e-06
9.34256e-06
4.56321e-05
-4.52998e-05
0.0002318
-1.65905e-05
-9.65686e-05
0.000247102
-6.24573e-05
-9.62119e-05
4.41667e-05
-6.78145e-05
-9.3994e-05
-3.89073e-05
6.94153e-05
5.6017e-05
3.48889e-05
-0.000183194
5.50054e-05
9.55173e-05
2.66579e-05
-3.39594e-05
0.000120549
5.0033e-06
-7.52767e-05
0.000127643
-7.99589e-05
-8.11338e-05
-0.000202426
6.17066e-05
-9.95561e-05
-5.43239e-05
-5.9481e-05
-9.60127e-05
0.000116062
-0.000147445
1.14926e-05
-7.43307e-05
0.000155805
7.66396e-05
-6.99934e-05
7.3711e-05
-2.04369e-05
-8.95965e-05
9.62395e-05
-3.38343e-05
-3.49056e-05
4.17578e-05
0.000162895
3.63595e-05
8.77911e-05
-3.58353e-05
-2.20574e-05
-3.02307e-06
-1.37133e-05
3.0427e-05
5.12835e-05
-1.66395e-05
-6.64191e-05
-0.000106226
-3.41021e-05
-0.000114614
-1.21311e-05
2.69823e-05
0.000152796
4.25635e-05
-6.6248e-05
1.30315e-05
0.000125127
-3.36292e-05
0.000125025
-3.74274e-05
-0.000105816
-9.70291e-05
0.000180478
2.01132e-05
3.31971e-05
4.16909e-05
0.000125363
-0.000130524
0.000146989
3.85052e-05
-9.22035e-05
-5.52798e-06
-2.88952e-05
-7.75098e-05
-0.00016559
-6.21087e-05
8.73237e-05
0.00013541
-5.54547e-05
8.27904e-05
8.54185e-05
0.000115635
-8.62867e-05
4.55806e-05
0.000119125
0.000184091
2.40607e-06
0.000137161
5.34622e-05
5.22607e-05
5.68457e-05
0.000167474
-5.51222e-05
-1.33795e-05
-4.05211e-05
-0.000125639
6.85592e-05
-1.32679e-05
3.22423e-05
-2.87495e-05
-4.65667e-05
-8.74831e-05
-7.0593e-05
7.68012e-05
-9.85495e-05
4.49246e-05
-7.86617e-05
9.82096e-05
-0.000145106
-0.000182991
0.000104832
-1.31568e-05
-7.55035e-05
0.000210964
-6.38554e-05
8.74362e-05
0.000118602
-0.000142688
0.000153399
0.000188842
-0.000133898
-3.04491e-05
-8.05348e-05
-1.98927e-05
-2.80348e-05
5.00244e-05
-0.000123372
-0.000185927
2.17024e-05
2.22621e-05
-4.2201e-05
8.28359e-05
-0.000114716
-1.4395e-05
-3.40608e-05
-0.00010146
3.6577e-05
-5.14566e-05
0.000108134
-1.38625e-05
-8.48671e-05
1.70883e-05
0.000166329
4.82551e-05
-0.000137476
-0.000130724
-9.48517e-06
4.53354e-05
-0.000128978
5.08633e-05
1.61455e-05
-0.000157478
0.000116752
-5.86527e-05
-9.88576e-06
2.70255e-05
5.98145e-05
5.88682e-05
7.47684e-05
-2.03861e-05
6.78026e-05
-9.19695e-05
-5.69085e-06
-0.000144546
0.00017434
-1.03797e-05
-3.03937e-06
3.54423e-05
7.37602e-05
5.43421e-05
-7.24921e-05
-4.39927e-05
-3.61345e-05
2.63089e-05
0.000149056
6.77117e-05
-0.000108175
2.75439e-07
-0.000102251
0.000191155
-4.92902e-07
2.48826e-05
1.41294e-05
-5.52989e-05
-0.000112944
1.64523e-05
5.99892e-05
-0.000104574
-2.01638e-05
-2.0616e-05
-2.06783e-05
2.71749e-05
3.29529e-05
9.95221e-05
-4.56778e-05
-3.40294e-06
3.48244e-05
5.4494e-05
4.1261e-05
0.000162434
-7.54968e-05
-7.04981e-05
-8.7067e-07
0.000148985
8.32418e-05
6.136e-05
7.60481e-05
-1.61115e-05
-8.15629e-06
0.000102876
4.52769e-05
3.0488e-06
1.02991e-05
9.89576e-05
-6.89173e-05
3.38095e-05
7.08604e-05
-5.00825e-05
-0.000160351
2.85013e-05
-3.94691e-05
0.000187725
0.000159625
2.64982e-05
9.43416e-05
4.62709e-05
5.01354e-06
-5.53369e-06
0.00016653
-0.000108887
6.76443e-05
7.97854e-05
2.64239e-05
-3.33127e-05
-3.69875e-05
0.000154182
-0.000138619
-8.34803e-05
3.1344e-05
1.95613e-06
7.74232e-05
-8.67888e-05
-0.000106185
0.000124944
-3.27162e-06
3.75253e-05
9.61658e-05
-6.26926e-05
0.000192471
1.74623e-07
-0.000103404
-1.4643e-05
-7.02788e-05
0.000126966
-4.42555e-05
-3.12373e-05
-6.08345e-05
0.000185488
6.59423e-06
-2.88463e-05
2.5573e-06
-4.1951e-05
2.88816e-05
-7.87321e-05
-0.000245335
-4.55743e-06
1.41864e-06
-2.96715e-05
-0.000100693
6.97654e-05
9.95679e-05
2.10074e-05
9.20028e-05
0.000134083
6.70727e-06
-3.21709e-05
-1.05817e-05
0.000141856
-7.66036e-05
-3.02682e-05
-9.20397e-05
-5.64929e-05
-6.99654e-05
-1.04238e-06
-3.12675e-05
-1.03475e-05
-1.91766e-05
6.47316e-06
-1.19128e-05
1.19004e-05
-0.00012422
-0.000133447
2.95369e-05
2.01783e-05
7.0115e-05
-6.80153e-05
0.000112859
-5.64292e-05
-0.000102792
3.18151e-05
9.65784e-05
0.000142975
-0.00021521
-2.51567e-05
0.000155175
-7.08782e-05
-1.83482e-06
-9.00576e-05
-6.12383e-05
3.0627e-05
-2.73803e-05
0.000121417
-7.09179e-06
-0.00013656
5.42095e-05
-8.1833e-06
-8.82488e-05
-4.20783e-06
6.04573e-05
1.07253e-06
-0.000111191
-8.29697e-05
-0.000135973
-2.61222e-05
7.20019e-05
-0.000131596
2.96034e-05
2.28287e-05
-6.37444e-05
0.00025458
-1.29702e-05
-0.000103429
-5.66975e-05
-0.000126446
-7.45105e-06
9.49728e-05
-0.000134313
2.41229e-05
-7.84071e-05
9.75836e-05
3.62005e-05
9.45164e-05
2.15506e-05
-2.0613e-05
-3.8811e-05
-0.000148646
0.000226774
9.63691e-05
-7.63237e-05
2.87782e-05
8.77602e-05
-8.39328e-05
-2.85242e-05
0.00010019
-0.000145643
7.67792e-05
4.4106e-05
6.33271e-05
3.54635e-05
-4.70184e-05
6.0105e-05
0.000238688
-1.13721e-05
1.32807e-05
4.61289e-05
9.35651e-05
0.000111443
6.894e-05
4.29255e-05
5.71762e-05
-0.000123357
-2.57513e-05
2.09777e-05
-7.54532e-05
-5.30501e-05
3.71691e-06
-4.1326e-05
0.000107548
-7.41158e-05
-8.38637e-05
3.15653e-05
-0.000155529
-4.05952e-06
8.19247e-05
7.88569e-05
8.92172e-06
-0.000158251
0.000104388
6.37078e-05
-9.68605e-05
8.47038e-06
-2.26416e-05
2.02252e-05
-5.80796e-05
-4.53768e-05
-0.000111838
-1.58467e-05
4.66695e-05
8.89576e-06
1.84819e-05
0.000207152
1.02583e-05
3.13813e-05
0.000133191
4.81964e-05
4.80295e-05
4.55591e-05
2.47977e-05
0.000182448
-2.09904e-05
-5.10684e-05
-0.000165661
-1.12369e-05
1.81831e-05
-8.31875e-05
-4.87247e-05
-7.17351e-06
6.01623e-06
-7.74846e-05
6.14959e-05
8.30101e-05
5.09629e-05
-9.22196e-06
-1.73694e-05
4.86034e-06
0.000144274
-9.19838e-05
-0.000114029
-6.52785e-05
-1.09933e-05
8.56711e-05
-5.85103e-07
-1.54504e-05
0.000174423
0.000100694
-6.32091e-05
-0.0001399
1.76427e-05
-7.06058e-05
3.54815e-05
-0.000141504
8.52e-05
7.9514e-05
-0.000127984
1.78969e-05
4.63218e-05
0.000139067
-4.06974e-05
-0.000219237
1.18928e-05
6.91261e-05
0.000103412
3.01385e-05
1.81209e-05
-8.48228e-05
-2.77942e-05
-3.61353e-05
-4.22498e-05
2.46969e-05
-0.000103876
-0.000121247
-1.83883e-05
-5.68035e-05
-0.000118191
-0.000102747
9.25113e-05
2.27754e-05
1.13464e-05
-0.000100635
-2.48381e-05
-9.26375e-05
3.89393e-05
5.67281e-05
-3.55963e-05
7.58736e-05
0.000112991
2.82418e-05
-6.06355e-05
1.33615e-05
-4.06094e-05
-1.7771e-05
8.73166e-05
-0.000233145
-0.000133023
0.000155851
-4.31326e-05
-1.5056e-05
-9.80077e-06
-1.25053e-05
3.95523e-05
-6.42716e-05
3.49199e-06
-0.000116738
-9.34384e-06
2.47865e-05
7.48532e-05
-0.000201998
-7.66098e-05
5.21203e-05
6.21418e-05
-2.86261e-05
-7.18139e-05
-8.01748e-05
-4.28618e-05
9.60915e-06
-5.67323e-05
-7.19767e-05
-4.84578e-05
1.45548e-05
0.000141873
0.000127031
1.97371e-06
9.00913e-05
5.61434e-05
-0.000165351
3.27247e-05
-6.42666e-05
9.19829e-05
-1.09896e-06
0.000159574
-1.11896e-05
-3.98201e-05
0.000106627
2.95392e-05
0.000145452
-0.000168276
-0.000103096
-5.23592e-05
4.49643e-06
2.28034e-06
6.18851e-05
-3.4961e-05
-0.000110267
8.19858e-05
-8.72057e-05
0.000166318
-0.000134454
4.82142e-05
-8.84791e-06
-3.29851e-06
7.42726e-05
-5.85739e-05
3.09367e-05
5.62286e-07
-9.50582e-05
6.60253e-05
-2.82363e-05
-8.41315e-05
-6.04364e-05
5.38502e-05
0.00025675
-0.000159861
2.50966e-05
3.67749e-05
-2.15393e-05
7.59184e-05
-7.9782e-05
0.000149188
-0.000147423
7.61397e-05
-3.72761e-05
2.41606e-05
-6.29656e-05
-3.29039e-05
1.4817e-05
-4.5312e-05
-8.09513e-05
-7.09496e-05
0.000223434
-8.89183e-05
-7.10953e-05
5.09378e-05
-0.000254145
2.66448e-05
0.000193972
1.46683e-08
6.41404e-05
-9.98833e-05
3.32808e-05
4.92508e-05
4.34159e-05
-0.000144352
7.04243e-05
-1.6971e-06
-0.000104599
-6.99658e-05
-2.57301e-06
3.46615e-06
0.000126863
-8.41729e-05
0.00011235
-7.54278e-06
7.81077e-06
-0.000189092
2.34597e-05
-8.62731e-06
-0.000121178
-2.05012e-05
-6.07874e-06
5.29647e-05
-0.000192091
-9.77197e-05
-8.92789e-07
-9.43663e-06
-0.000140861
1.41957e-05
0.000150769
-2.41939e-05
-5.047e-05
-0.000102182
-7.32183e-05
4.00082e-05
-8.40152e-05
-2.61981e-06
7.21647e-05
-5.01587e-06
-0.000208037
-5.41101e-05
5.78298e-05
3.01236e-06
-0.000111917
6.54033e-06
-5.46847e-05
-5.08747e-05
-0.000133588
3.31155e-05
-4.7409e-06
-5.78379e-05
1.08759e-05
-4.19097e-05
-7.33049e-05
-5.93823e-05
-6.37658e-05
-7.91908e-05
0.000179464
1.7667e-05
2.41748e-05
4.90127e-05
9.09176e-05
1.51545e-05
2.98346e-05
0.000123129
-3.18817e-05
-5.28048e-05
4.12744e-05
-3.41273e-05
3.48026e-05
5.96377e-05
4.79476e-05
4.5122e-05
-8.75889e-05
-0.000116376
0.000112258
0.000105033
5.79007e-05
-5.89758e-05
-0.000101084
-4.49343e-05
1.3578e-05
-8.03011e-05
-7.24149e-05
-5.80535e-05
-8.03941e-06
8.582e-05
4.42255e-05
1.96766e-05
6.93058e-05
-1.14442e-05
4.66335e-05
0.000114619
6.39136e-05
2.45428e-05
1.20528e-05
-3.64083e-05
0.000183936
-4.00505e-05
-9.58397e-05
-7.97372e-05
-6.42389e-05
0.000156116
-6.36356e-05
-2.02825e-05
4.17326e-06
-4.45128e-05
7.46369e-05
4.88358e-05
-3.63686e-05
-0.000136864
2.26919e-05
8.50554e-05
-0.000120947
5.87202e-05
8.04807e-05
0.000141268
-9.61535e-05
-4.66129e-05
9.0152e-06
9.69344e-06
-7.78129e-05
-0.000100693
-1.29173e-05
-5.87931e-05
0.000103821
-6.09953e-05
8.94502e-05
9.45113e-05
-0.000128505
-4.94933e-05
-4.3689e-05
-7.08309e-05
-0.000152902
8.99583e-05
3.93853e-05
-3.43998e-05
8.3604e-05
-8.6269e-05
1.90388e-05
0.000105029
6.92389e-05
-0.00015256
-1.11223e-05
1.29405e-05
-3.59839e-05
-0.000109607
-9.22394e-06
4.99605e-05
-0.000108295
-2.22258e-05
0.000162948
-3.69203e-05
-8.1397e-05
7.08312e-05
7.32482e-05
-0.000151626
1.86783e-05
-8.27657e-05
0.000149285
0.000208639
-8.35498e-05
0.000200181
-0.000120059
-1.88106e-05
6.65953e-05
2.44031e-05
3.58024e-05
-2.18051e-05
2.2029e-05
9.15979e-06
-1.0189e-05
7.73014e-05
0.000114986
0.000149647
-0.00023387
-7.64143e-05
-7.88828e-05
-9.34936e-05
-2.89036e-05
-6.38497e-05
-1.02568e-05
6.80236e-05
8.09911e-05
-9.77293e-05
-4.77615e-05
2.20696e-05
-9.07271e-06
-7.34439e-05
-2.47918e-05
-5.54193e-05
-0.000158401
-0.000131673
-0.000131402
0.000161567
-3.50387e-06
0.000106311
6.27383e-05
8.723e-05
2.11267e-05
-3.42297e-05
6.9758e-05
-0.000100716
-5.44623e-05
3.59348e-05
0.000133588
-0.000108584
-3.32652e-05
3.54216e-05
1.38136e-05
0.000106503
3.69294e-05
-6.15643e-05
1.43005e-06
3.04065e-06
-1.18786e-05
4.2985e-05
-0.000108531
5.9281e-05
-7.5167e-06
-9.04315e-05
0.000141919
-2.30521e-05
6.78899e-06
3.7923e-05
-0.000152063
4.06211e-05
5.02765e-05
0.000112594
0.000128136
-0.000125756
1.05312e-05
-5.09266e-05
2.98413e-05
2.57912e-05
-8.11841e-05
0.0001153
6.59634e-05
6.76946e-05
-0.000130828
-0.000112621
0.000101887
1.27091e-06
4.53307e-05
-8.13745e-05
-5.44186e-05
1.97908e-05
0.000133827
-0.000102773
2.49998e-05
2.97732e-05
-0.000129572
0.000129191
0.000223764
-9.91629e-05
3.28548e-05
-1.16025e-05
-8.31769e-05
-9.07925e-05
0.000253356
5.35441e-05
8.99079e-05
-1.28828e-05
1.56284e-05
-1.35129e-05
-6.94771e-05
0.000116717
6.96164e-07
-0.000128637
9.77191e-05
-3.59087e-05
7.80565e-06
-3.26319e-05
2.08966e-06
-0.000176927
3.63819e-05
8.55338e-05
3.70899e-06
-5.72649e-05
-6.51209e-05
3.484e-05
7.9312e-05
-2.3051e-05
-9.24057e-05
0.000148317
2.08891e-05
-0.000112436
-1.74914e-06
2.79108e-05
0.000137688
2.49797e-05
9.28803e-05
-7.9181e-05
-3.03593e-05
-2.9176e-05
-9.0956e-05
2.60475e-05
5.77996e-05
-3.75826e-05
-1.97816e-05
0.000156924
1.1894e-05
-4.09654e-05
-4.77943e-06
6.18377e-05
3.51773e-05
-7.29751e-05
2.94537e-05
-4.75404e-05
-0.000199166
-5.49511e-05
0.00011342
1.65844e-05
0.000119959
-4.95452e-05
-5.48704e-05
-4.40069e-05
-0.000132319
-1.10683e-05
-3.26023e-05
2.95192e-05
-6.70108e-05
-5.68007e-05
4.42584e-05
0.000101566
-3.75577e-05
6.88512e-05
2.77115e-05
-1.84724e-05
6.67991e-06
2.3826e-05
-5.53917e-05
-4.54466e-05
-0.000216462
-2.11403e-05
-1.80863e-06
-2.24019e-05
-1.20922e-05
0.00010017
-2.95336e-05
-7.851e-05
-5.64094e-05
3.54525e-05
-0.000122103
2.53572e-05
-5.15473e-05
-4.73845e-05
-0.000177943
9.91318e-05
-2.02771e-05
-9.05284e-05
-0.000160802
3.1586e-05
2.08628e-05
0.000123532
2.61996e-05
0.000129311
0.000128507
-0.000103171
0.000114865
-0.000114433
-0.000105036
8.2195e-05
2.43471e-06
-7.25676e-05
7.0503e-05
-7.86391e-05
6.73993e-05
-0.000127969
-0.000100283
-0.000118212
-7.90138e-05
0.000137715
0.000141568
9.92953e-06
7.19058e-05
0.00010033
2.52512e-05
1.47475e-06
8.82393e-05
5.75712e-05
-6.24523e-05
8.51982e-05
-0.000157947
1.81689e-05
-3.88664e-06
4.89353e-05
4.22921e-05
-0.000100306
-1.68709e-06
-1.68706e-05
0.000236002
-3.15238e-05
0.000154999
8.43906e-05
-0.00017859
-0.000125187
8.14856e-05
0.000228193
9.75168e-05
5.02612e-06
-2.93702e-05
-2.1341e-05
-8.04651e-06
0.000111529
1.97557e-07
1.47168e-05
2.26225e-05
-5.05627e-05
-1.86267e-05
-9.56487e-05
1.27165e-05
-6.36955e-06
-4.83735e-05
-0.000162495
-0.000150669
-0.000123185
-0.000130301
-0.000143541
2.76944e-05
-1.19654e-05
2.78468e-05
9.66762e-05
-0.000155889
-2.90857e-05
4.30582e-05
5.52197e-05
5.57828e-05
-7.19579e-05
8.21796e-05
3.18002e-05
-1.61433e-05
0.000118334
-3.50527e-05
6.98165e-05
5.22403e-05
-7.46017e-05
0.000128429
6.87912e-05
5.37094e-05
0.000164081
-6.80971e-06
5.29115e-05
6.0758e-05
0.00010507
-3.67898e-05
6.41251e-05
3.23204e-05
1.73885e-05
-6.47977e-05
3.52538e-05
-5.44684e-06
-5.8271e-05
1.32599e-05
7.8961e-06
3.92064e-06
-6.19179e-05
-0.000115363
0.000189382
-7.03012e-05
3.245e-05
-1.29215e-05
1.29637e-05
3.50394e-05
-3.84763e-05
-0.000227834
1.54445e-05
6.68493e-05
0.000208985
-0.000137775
-0.000119737
3.37977e-06
-6.6785e-05
5.28104e-05
0.000212002
-5.04096e-05
4.52348e-05
6.23984e-05
6.92578e-06
3.33388e-05
-6.37034e-05
-0.000141852
-8.25968e-05
-2.83277e-05
6.21283e-05
7.06126e-05
-5.41143e-05
7.35441e-05
-7.91077e-05
-5.05353e-05
-4.26944e-05
-7.86113e-05
0.0001346
8.86398e-06
2.61981e-06
-3.53695e-05
-5.94273e-05
3.82782e-05
0.000139264
3.07462e-05
7.92171e-06
-4.54565e-05
9.66465e-05
-7.32993e-05
5.74486e-06
0.000131036
-4.60166e-05
6.8842e-05
1.5473e-05
-8.83697e-05
-5.20655e-05
1.93806e-05
-2.46966e-05
-0.000105775
5.53711e-05
8.18246e-05
-1.16583e-05
7.75494e-05
-7.5381e-05
1.98961e-05
-6.55057e-05
8.65604e-05
-3.59196e-05
3.04583e-05
-5.8895e-05
9.53081e-06
8.25461e-05
7.46211e-05
0.00012271
-5.17648e-05
-0.000140594
0.00019018
9.21078e-06
3.64252e-05
9.16629e-05
-3.47005e-05
4.3662e-05
3.07771e-05
-0.000150937
-8.95238e-05
0.000129958
-3.13127e-05
-7.87964e-05
6.66198e-06
-1.89303e-06
5.4436e-05
-0.000157931
6.44324e-05
4.38956e-06
3.60431e-05
-2.89259e-05
8.61718e-05
-1.9521e-05
0.000125604
-4.93161e-05
-0.000227412
-8.44894e-05
5.98044e-05
9.87015e-05
1.2356e-05
-5.95482e-05
-9.38501e-05
-3.79921e-06
9.86212e-06
2.55556e-05
-2.09052e-05
5.29066e-05
0.000165624
1.71982e-05
-1.62057e-05
8.63128e-05
9.68995e-05
0.00013841
-7.13125e-05
-9.83441e-05
-0.000187773
5.00738e-05
-0.000108281
-4.2038e-05
5.10599e-05
-1.11755e-05
-0.000140329
-4.6157e-05
9.76487e-05
1.93331e-06
0.000108967
-0.000172523
9.25409e-06
-0.000121084
-5.38621e-05
0.000162285
6.13234e-05
-2.99657e-05
7.6181e-05
0.000115906
-6.37932e-05
3.29337e-05
2.14529e-05
-4.1126e-06
5.75271e-05
2.30665e-05
2.59972e-05
-0.000109766
-5.54885e-05
-8.38377e-06
2.87623e-05
9.90411e-05
-4.36297e-05
1.81712e-05
-0.000169497
6.91153e-05
0.00012983
-9.32172e-05
-1.71874e-05
-6.78564e-05
-1.37766e-05
-2.54693e-05
4.15125e-05
2.24677e-05
-9.06695e-05
2.38942e-06
2.23627e-05
-1.01802e-05
-2.06265e-05
8.91822e-05
-1.04995e-06
-7.01812e-05
6.77123e-05
-0.000114379
0.000177749
6.07076e-05
-6.39325e-05
-4.53332e-05
-9.15691e-05
5.09659e-05
0.000144512
3.63728e-06
9.31625e-06
-4.96003e-05
-2.26523e-05
-0.000135984
6.17027e-05
-8.23095e-05
-2.61458e-05
6.40766e-05
-3.31926e-05
3.07765e-05
8.76577e-05
-0.000151892
-5.1677e-05
1.66292e-05
-6.09268e-05
-0.000119047
6.81179e-05
1.12376e-05
-9.24454e-06
-5.53959e-05
0.000118445
-2.72857e-05
-0.000138147
4.61021e-05
4.37279e-06
3.15579e-05
-5.22431e-05
-7.02605e-05
5.66065e-05
0.000132813
0.000165443
0.00012442
5.91397e-05
-9.197e-05
1.81688e-05
6.40901e-06
8.71537e-05
4.34436e-05
8.68461e-05
-6.83202e-05
2.92048e-05
-3.11068e-05
2.90944e-05
7.03549e-05
-7.91647e-05
0.000121497
1.46348e-05
-3.86857e-05
-5.53841e-05
-9.60235e-05
0.000150604
4.09503e-05
-7.54478e-05
-6.59027e-05
3.99819e-05
-3.86501e-05
0.000112857
-0.000197858
4.93141e-05
-6.38687e-05
-1.77039e-05
-2.65981e-05
-0.000101565
-1.84752e-05
-3.32677e-05
-1.24192e-05
-1.43059e-05
2.11492e-06
-3.65272e-05
2.22863e-05
-5.77038e-05
0.000197707
-0.000151494
-5.89496e-05
0.000137779
2.68319e-05
-9.80293e-05
-0.000124931
3.11426e-05
-1.91443e-05
1.89815e-06
9.94829e-05
0.000232891
7.02442e-05
-0.000154902
-8.72554e-05
0.000162866
4.77792e-06
-3.19129e-06
2.80282e-05
5.15271e-05
2.49972e-05
0.00011302
-0.00010313
6.42822e-06
-6.80694e-05
5.21248e-05
9.98096e-05
3.75333e-05
-1.25123e-05
2.78675e-05
-0.000175121
-3.98163e-05
0.000127756
5.71343e-06
-4.73845e-06
2.4218e-05
-0.000104495
-2.66056e-06
-0.000126257
-6.13291e-05
4.57133e-05
-2.7816e-05
7.88628e-05
0.000187593
0.00014246
-7.18031e-05
3.68708e-05
-7.99714e-05
-9.76784e-05
8.35124e-05
-7.66616e-05
1.73714e-05
3.8821e-05
3.76338e-05
-6.60974e-05
-4.90418e-05
-7.5486e-06
-0.000157611
7.44852e-05
0.000110231
0.000165343
-0.000116037
5.68122e-05
2.02919e-05
-4.26092e-05
4.47272e-05
-3.47784e-05
-3.89833e-05
-7.4769e-05
4.80473e-05
9.04489e-05
-5.58107e-05
-1.13859e-05
3.43553e-06
0.000201405
-5.2454e-05
6.94704e-05
-1.1354e-06
-8.97857e-05
6.21215e-06
-1.40306e-05
-5.95944e-05
3.46325e-05
0.000132578
-3.57155e-05
3.04384e-05
0.000111536
1.8851e-05
-1.74165e-05
-4.32122e-05
-1.18213e-05
-1.31887e-06
2.3371e-05
-2.01715e-05
-7.93703e-05
0.000145506
1.79217e-05
-2.63029e-05
-3.20192e-05
7.61119e-05
-8.72696e-06
-0.000197836
-0.000123453
2.00715e-05
4.62927e-05
0.000133335
-1.3278e-05
2.91374e-05
4.53092e-05
-3.26465e-05
-4.05913e-05
0.00012126
6.09395e-05
1.83124e-05
-6.41083e-05
8.71444e-05
-3.52121e-05
-2.23265e-05
2.69903e-05
-0.000210486
0.000114811
-9.10567e-05
0.00014374
1.79433e-05
1.02343e-05
-2.4706e-05
8.5257e-05
0.000171645
-1.39992e-05
-7.11629e-05
-7.28322e-05
5.84441e-05
5.2992e-05
6.56092e-05
-9.69052e-05
-1.35747e-05
0.000129801
0.000239294
-4.43282e-05
3.97892e-05
-1.95486e-05
9.60253e-05
-3.60286e-05
-0.000116181
-2.88159e-05
-4.1621e-05
0.000108467
7.31414e-06
2.43831e-05
-3.9587e-05
-9.52773e-05
0.000234467
8.88009e-05
5.22882e-05
7.42762e-05
6.16392e-05
-4.00976e-05
-8.5542e-05
-0.000195942
-9.62389e-05
-2.46788e-05
4.10401e-05
7.28234e-05
-1.15088e-05
0.000226808
0.000109815
-0.000132022
-9.46317e-06
7.56357e-05
-8.9485e-06
3.65067e-05
0.000156296
0.000201728
3.54773e-05
0.000154689
-1.79441e-05
9.59344e-05
9.93991e-05
-0.000144887
-0.000179458
-5.5755e-05
-0.000112793
4.62697e-05
9.80368e-06
-3.30926e-05
-6.04559e-05
4.98793e-06
6.31223e-05
-4.55346e-05
8.09004e-05
-4.53434e-05
-5.27857e-05
-3.14519e-06
-3.57049e-05
-9.53022e-06
-6.95039e-05
0.000112653
3.84289e-05
3.97172e-05
0.00011879
0.000150989
-1.51478e-05
-7.9414e-05
9.34908e-06
-0.000194301
9.04885e-06
0.000121529
0.000118377
1.48934e-05
-4.72448e-05
-0.000137434
9.47146e-05
7.65393e-05
2.43281e-05
-5.19562e-05
-9.07073e-05
-7.84028e-05
-0.00013318
0.000166111
0.000142646
-1.28017e-05
-6.76466e-06
6.35243e-05
-0.00016043
6.11542e-05
6.39413e-05
-4.4923e-05
-0.000135077
6.33209e-05
-1.69151e-06
7.0394e-05
-3.5133e-06
2.15792e-05
-9.5493e-05
4.49363e-08
3.93041e-06
-0.000138939
-4.6609e-05
-2.1399e-05
3.82513e-05
4.52858e-05
-5.11392e-05
-4.63858e-05
-3.81477e-05
-3.43007e-05
0.000192354
7.41846e-05
0.000221835
0.000152335
-0.000181402
7.71312e-05
-2.89914e-05
-3.52785e-05
-1.87594e-05
3.99146e-05
7.15954e-05
0.00011
-1.74604e-05
4.86128e-05
1.13621e-07
-2.96719e-05
-2.09548e-08
3.6699e-05
7.52395e-05
-6.67828e-05
-0.00012009
0.000114192
-8.33058e-05
0.000195564
-3.68101e-05
-4.92426e-05
-4.45823e-05
-6.72839e-05
-4.47985e-05
5.05156e-05
9.99533e-05
-0.000119873
-7.21817e-05
3.08802e-05
1.09177e-05
-6.43218e-05
-1.2768e-05
0.000136612
2.14311e-05
-8.01781e-05
0.000107602
-1.95275e-06
1.55658e-05
-0.000126492
-4.68821e-05
8.12872e-05
-2.08912e-05
-8.32627e-05
0.000186634
0.000197409
5.88677e-05
-0.000151033
-0.000109855
-0.000144196
-1.8832e-05
-2.33382e-05
9.07425e-05
0.000110765
8.38656e-07
0.000269336
6.3593e-06
-0.000178776
4.82047e-05
7.14092e-07
4.82157e-06
-7.97906e-05
-8.61997e-05
-1.99096e-05
-4.88922e-05
9.48091e-05
-7.22357e-07
0.000105487
-5.55776e-05
-3.23022e-05
-5.79795e-06
7.00359e-05
-2.66414e-05
5.87781e-06
2.30989e-05
-2.69382e-05
-3.5431e-05
0.000121423
-0.00019233
6.66262e-05
5.33483e-05
-3.13583e-05
-0.0001127
3.98422e-05
8.37336e-05
-0.000135247
-0.000129601
-3.15751e-05
-7.25352e-05
9.45914e-05
8.67737e-05
-0.000117806
-4.82254e-05
2.83634e-06
-0.00020758
2.65406e-05
0.000114953
2.77208e-06
-5.15222e-05
9.70059e-05
0.000128563
-5.79403e-05
4.13866e-05
8.48332e-05
-4.58409e-05
-9.13242e-05
0.000140747
2.60652e-05
-9.71527e-05
7.6549e-05
1.62694e-05
-0.000120145
-0.000104043
-4.25782e-05
0.000110973
2.52865e-05
-0.000134327
-6.40893e-05
0.000116879
5.98414e-05
-7.31117e-05
3.84439e-05
-2.63023e-05
-4.34953e-05
-9.02767e-05
2.1262e-05
-6.14579e-05
0.000181006
6.66183e-05
-0.00014922
-9.56724e-06
0.000104835
8.10266e-05
3.17447e-05
-2.58494e-05
-5.59189e-05
1.56059e-05
-4.15969e-05
4.94546e-05
-7.84521e-05
-0.0001203
1.88593e-05
3.40245e-05
-0.000102925
-9.41432e-05
-6.72652e-05
-2.04018e-05
-4.34602e-05
1.1439e-05
7.69978e-05
-0.000202481
-7.01309e-06
5.69586e-05
0.000138872
2.73716e-06
-1.34436e-05
0.000141716
-9.78188e-05
-1.75682e-05
-0.000114248
-4.51785e-06
0.000133411
-1.63731e-05
2.38852e-05
0.00011409
-1.51459e-05
5.7806e-06
-5.89264e-05
0.000106519
-0.000110708
6.32809e-05
0.000123234
-7.25343e-05
-4.84334e-06
4.08352e-05
-9.3549e-06
-0.00010567
-4.55782e-05
0.000124542
-6.00485e-05
-4.19327e-05
-0.000133913
-2.70045e-05
-2.51989e-05
5.45708e-06
-5.03543e-06
-7.69212e-05
6.50506e-06
0.000116326
0.000127374
0.00016673
-1.05562e-05
-0.000206479
0.000182523
7.48385e-05
-2.78918e-05
7.52546e-05
-4.91741e-05
-1.85496e-05
-1.14244e-05
3.4079e-05
-3.84292e-05
-7.33605e-05
8.69257e-05
6.50203e-05
-9.85953e-05
-5.78479e-06
-1.07903e-05
-5.80207e-05
-9.20608e-05
2.76718e-05
-8.15354e-05
-7.98196e-05
2.13588e-05
0.000112224
9.84112e-05
7.53228e-05
-0.000211937
0.000163681
-7.19719e-05
4.48013e-06
-3.96579e-05
5.87143e-05
3.4793e-05
3.47586e-05
2.93551e-05
4.70481e-06
5.5437e-05
-1.48627e-06
-0.000124396
-3.4835e-06
-5.07142e-05
-2.09995e-05
0.000129396
-2.92571e-05
2.09179e-05
-7.05541e-05
-0.000171928
-3.46851e-05
0.000154134
-4.65248e-05
0.000150401
-1.40688e-05
2.78042e-05
-4.51307e-05
9.39507e-06
0.000141182
3.2912e-05
-4.06132e-05
6.58385e-05
3.87589e-05
-2.9337e-05
-3.00352e-05
-5.72333e-06
6.48902e-05
-3.88515e-05
0.000130689
-4.96437e-05
7.59361e-05
-3.69506e-05
9.97749e-06
-6.46461e-05
3.62755e-05
-2.49823e-05
-3.81784e-05
1.75782e-05
-6.32817e-05
-6.81198e-05
7.20707e-05
-4.2606e-05
-4.93644e-05
-9.92038e-05
-0.000139119
9.75184e-05
-3.39869e-05
-0.000114887
-0.000112189
4.04837e-05
-2.15922e-05
-4.61728e-05
0.000109451
7.06455e-05
-4.02324e-05
6.59097e-05
-3.00459e-05
4.02906e-05
0.000171771
-0.000140593
-0.000213177
-5.7901e-05
-5.55336e-06
6.44505e-05
-0.000166967
8.32402e-05
7.40781e-05
-5.58118e-06
1.56964e-05
0.000152073
4.79018e-05
2.48023e-05
-1.0986e-05
-6.5436e-05
-9.8082e-05
-5.30051e-05
-2.28533e-05
0.000155694
6.38088e-05
4.59803e-05
-3.64105e-05
-0.000112674
-4.98448e-05
1.40649e-05
6.13125e-06
-2.2118e-05
3.62451e-05
6.27337e-05
2.96994e-05
7.35472e-05
-3.08981e-05
-8.75962e-05
1.02562e-06
0.000234073
-6.07657e-05
-8.99273e-05
4.31337e-05
9.36028e-05
4.04286e-05
-5.69888e-06
-7.08203e-05
-1.62119e-05
-8.73021e-05
-9.12349e-05