# vtk DataFile Version 1.0
Net Charge Density
ASCII
DATASET STRUCTURED_POINTS
DIMENSIONS 256 128 1
ORIGIN 0 0 0
SPACING 0.15625 0.15625 1
POINT_DATA 32768
SCALARS rhonet float
LOOKUP_TABLE default
-0.0311074
0.000334712
0.000239437
0.00230364
-0.000951837
-0.001583
-0.0014561
0.00402877
-0.00139147
-0.000532776
0.00290518
0.00020447
0.00200603
-0.00171072
-0.0030051
0.00444026
-0.00396205
0.00946495
-0.0115126
0.00626394
0.0107863
-0.0117472
-0.00313801
0.0136752
-0.0101677
1.4685e-05
-0.00319773
-0.00816452
0.0146597
-0.00705132
0.0147688
0.0173958
-0.0246312
0.0107376
-0.00415732
-0.00817348
-0.0121703
0.0199845
0.00366258
-0.0138792
-0.020183
0.0281479
-0.00503608
0.0138413
0.00334266
-0.011373
-0.0134601
0.0200379
0.00437371
-0.0212052
0.0166519
-0.00480641
-0.00578464
-0.00193056
0.0157487
0.0128805
-0.0314964
0.0173985
-0.0114298
0.0143639
-0.0113262
-0.0164835
-0.0311921
0.0742444
0.00142381
-0.03352
0.00873173
-2.0002e-05
-0.00839719
0.0393931
-0.0546036
0.00591603
-0.0158975
0.0263854
0.0271773
0.0262859
-0.0280507
-0.0368096
-0.00773012
0.0264425
0.00238907
0.0388027
-0.0200408
-0.0314375
0.0427985
-0.0462256
0.000397792
0.00990812
0.0231766
-0.0384509
0.0450213
-0.049938
0.0573658
0.00379942
-0.0511788
0.0172582
-0.0218023
0.0406885
-0.0594518
0.0188615
0.0412159
-0.0208888
0.0275626
-0.0628856
0.0285715
0.0149279
-0.0131677
0.0261291
-0.0628832
0.0798243
-0.0378553
0.0160174
0.00742391
0.0117184
-0.0685235
0.0128439
0.0449865
0.000814062
-0.0163486
-0.030965
-0.0355674
0.0650972
0.00934006
0.00995938
-0.00230135
0.00467551
0.0322462
-0.0574594
-0.0266326
-0.0246495
0.0282551
-0.016281
0.00528806
0.02147
-0.00141217
-0.0733802
0.0859867
0.0138506
-0.0697769
0.0702277
0.00999484
-0.00690997
-0.0297981
0.00157867
0.0255027
-0.00686606
0.0461259
-0.0556522
-0.000901174
-0.0454797
0.0872269
-0.0155708
0.0347534
-0.0829172
0.020347
0.0409957
-0.0981396
0.0622073
-0.0280491
0.0728384
-0.0524176
0.0400176
0.0728423
-0.0374237
-0.0441146
-0.049976
0.0510251
0.0231947
-0.075757
0.0810013
-0.12401
0.0872801
0.0413686
-0.00117846
-0.0731395
-0.0489791
0.088986
0.0227
-0.117545
0.0631856
0.102338
-0.124207
0.0330796
0.0331315
0.0244643
-0.0787441
-0.0440274
0.0460431
0.0314831
0.11715
-0.114236
0.0466841
-0.0212879
-0.136935
0.0587103
-0.00982808
0.116132
-0.0641114
0.0699007
-0.0520164
-0.0517645
0.0401258
0.006489
-0.123008
0.0248232
0.123409
-0.020957
-0.0816677
0.140035
-0.00334921
-0.000211369
-0.14499
0.0409894
0.0446962
-0.0691268
0.0290334
0.140088
-0.0698007
-0.041759
-0.00595534
-0.043059
0.141224
-0.105863
0.131159
-0.117156
0.0621123
-0.0784227
0.0347087
-0.0405749
0.0237826
-0.0525668
0.12985
0.0203006
-0.116495
0.0255957
0.119297
-0.124729
0.0613965
-0.05508
0.0281892
0.0253419
-0.0398116
0.0134534
0.00191312
-0.0470945
0.0457957
-0.014509
-0.125647
0.106939
-0.0377144
0.054329
-0.00510328
0.0872942
-0.0579616
0.00448247
-0.0217266
-0.0554828
-9.79276e-05
-0.00105822
0.000855731
-0.0011594
0.00189962
-0.00151209
0.00261489
0.000653082
-0.00599461
-0.00141787
0.00819518
-0.00510244
0.000205161
-0.0038125
0.000653855
0.00266492
-0.00213018
0.000827598
-0.00385801
0.0088848
-0.00378837
-0.00287635
0.002375
0.00150919
-0.00123987
0.00351002
0.00720505
-0.0243856
0.0098402
0.00644734
0.00736707
-0.00772799
-0.010307
0.00415608
0.0100717
-0.00448886
-0.00984747
0.0115619
0.0196672
-0.0388273
0.0246535
0.00562424
-0.0275368
0.031618
-0.0299374
-0.00255766
0.0163121
-0.00517245
-0.012648
0.00513655
0.000494254
0.0224878
0.0132273
-0.0231086
0.00748654
-0.0151934
-0.00416745
-0.00651547
0.0367061
-0.0155914
0.0120335
-0.0137079
0.0352593
-0.0281813
-0.049174
0.028122
0.00524808
0.00971978
-0.0172665
-0.00174366
0.0272671
-0.0347958
0.0244182
0.0165215
-0.0248894
0.0365753
-0.0584999
0.03155
-0.00408721
0.00874821
0.0225092
-0.0657979
0.039666
-0.00358562
0.00768904
-0.045196
0.0468762
0.00879676
-0.0190142
-0.034905
0.0110884
0.022745
0.00358008
0.00217809
-0.015709
0.0540069
-0.0504516
0.00498937
0.00681791
-0.0496757
0.0712685
-0.0388694
-0.0108058
0.056136
-0.0196322
-0.00410101
-0.0434069
0.0148597
0.0359762
0.00126181
-0.0073286
0.037629
-0.0502062
-0.0131754
0.00259138
0.0187913
-0.00651485
-0.0257693
0.0617774
-0.0395338
0.0660592
-0.0930829
0.0324063
0.0114614
0.00859265
0.000847891
-0.041684
0.0699403
-0.0482471
-0.0170619
-0.00370678
-0.016853
0.0486399
-0.046275
-0.00365528
0.114223
-0.113284
0.0448405
0.0179983
-0.00567245
-0.0181641
-0.00753599
-0.0322218
0.0248592
0.0634737
-0.0662937
-0.0562005
0.0699459
0.0379053
-0.0290475
-0.0260788
0.00588139
0.0245856
0.0232717
-0.0695874
0.0390404
0.0518527
-0.128276
0.0459257
0.03163
-0.0147253
0.0481932
-0.0707958
0.0143088
0.0431738
-0.0510462
-0.0120916
0.0145086
0.0563634
-0.0929094
0.0339565
0.0256474
0.0426151
-0.00918762
-0.0708659
0.0160635
0.00404239
-0.00450785
-0.02384
0.010844
0.0711719
0.00675295
-0.0269985
0.0520149
-0.0251744
-0.119955
0.102335
-0.0233451
-0.0329122
-0.00956644
0.0291826
0.0641848
-0.0888499
0.0225662
-0.0178304
-0.0159505
0.0112967
0.0614008
-0.0333719
0.0180101
0.0103423
-0.0391296
0.0100417
0.0239566
-0.0358645
0.0335987
-0.0163276
0.0867706
-0.0905451
0.022444
-0.0436485
0.0611193
-0.0654378
0.00220247
0.0422116
-0.0632637
0.127633
-0.138657
0.0531039
-0.0460056
-0.000449337
0.000354534
0.0395864
0.0623184
-0.0444392
-0.0627549
0.0864979
-0.00724027
0.0279943
-0.0120731
-0.113518
0.112333
0.0680408
-0.207597
0.0777633
-0.0206587
0.0566004
0.0371037
-0.0106824
-0.0953733
0.0360522
0.103478
-0.10232
-0.0141774
0.0443074
-0.0270829
-0.0533518
-0.00619844
0.185339
-0.075636
-0.160497
0.148581
-0.0645143
0.0661131
0.0339842
0.186496
0.000266637
0.00207205
-0.000676699
-0.00104461
0.00244446
-0.00102536
-0.00621074
0.000485265
-0.00191404
0.00716155
-0.00266001
0.00657973
-0.0019015
0.004392
-0.00520966
-0.00377449
0.00741434
-0.0203474
0.0106075
-0.000352532
0.0116821
0.0112406
-0.0226123
-0.00745333
0.00689812
0.00619558
0.00545849
-0.00961071
0.0129763
-0.023733
0.00714383
0.0143237
-0.00877874
0.00843484
-0.0163866
0.00771666
-0.010235
-0.00467871
-0.0109766
0.0279905
-0.0103981
0.0144747
-0.000676909
-0.011727
0.0238568
0.00026061
-0.0302215
0.000143227
0.0345314
-0.0374435
-0.010428
0.059186
-0.0496624
0.0133295
0.000937043
-0.0384393
0.0603524
-0.0475313
0.0189728
0.00155523
-0.0346332
0.0111148
-0.00405736
0.0279932
0.00429492
-0.00856363
0.0198226
-0.0372443
0.0572812
-0.013218
-0.0722812
0.0626536
0.00733936
-0.0136087
-0.00261655
-0.0243946
0.00352646
-0.0253817
0.0674931
-0.0136035
-0.0381154
0.029828
-0.0125451
-0.00262625
-0.0127393
0.0207597
-0.0298552
0.0302739
-0.0475193
0.0109544
0.0668375
-0.024115
-4.30327e-05
0.000853345
0.00390527
-0.0528047
0.0622783
-0.00877409
-0.0803985
0.130001
-0.118301
0.0594176
0.00222441
-0.0921335
0.0773489
-0.0380559
0.0206763
0.0993516
-0.06712
-0.0203758
0.0105075
-0.0159852
-0.0280899
0.0406934
-0.011874
0.0564868
0.0195282
-0.0486928
-0.0344489
0.0382124
0.0322707
-0.129381
0.0209363
0.0699765
-0.0424278
-0.0118921
0.04136
-0.0485607
0.132437
-0.065019
0.0514602
-0.0322849
-0.0621661
-0.0114279
-0.00910376
0.0585541
0.0826915
-0.14125
-0.00795058
0.0189553
0.0157675
0.0401876
0.0324544
-0.0405838
-0.0632681
0.179845
-0.127282
0.024829
0.0264952
-0.0714714
-0.0484666
0.0922592
-0.0478018
-0.0405463
0.0940317
-0.00452371
-0.00017589
-0.0195856
0.0765217
-0.0605502
-0.0405355
0.0535731
-0.00482659
-0.114833
0.0215529
0.0506443
-0.0565435
0.122525
-0.0836738
0.0790261
-0.128689
0.0300285
0.0272901
-0.0735407
0.00588443
0.131063
-0.15164
0.118833
0.100264
-0.131317
-0.000953577
0.105046
-0.0716368
-0.0518564
0.042703
0.155377
-0.204412
-0.0538784
0.148926
-0.129903
0.0570572
0.0502637
0.0332196
-8.2843e-05
-0.00447565
-0.0904214
0.0185593
0.0667071
-0.138588
-0.0615274
0.0916971
0.0334891
0.0848505
-0.0473575
-0.0167168
-0.0146391
-0.173482
0.155399
0.0606933
-0.00133939
0.0440925
-0.0993809
-0.0663367
0.0298984
0.175115
-0.100208
-0.00513119
0.169665
-0.082074
-0.15591
0.0414884
-0.0180849
0.0451736
-0.104118
0.233209
-0.239537
0.131426
-0.0762629
0.0387927
0.0566086
-0.112037
0.0523975
-0.0802481
0.0803699
-0.101898
0.0616873
-0.0386212
0.190113
-0.194629
0.176178
-0.104816
0.012747
0.00188104
-0.0443604
0.0287964
0.047837
0.135685
-0.109919
-0.1621
-0.11005
0.355925
-0.0831134
0.00270874
-0.0995627
-0.133091
0.13975
-0.000987039
-0.000302435
0.00251217
-0.00256325
-0.00286573
0.00102581
0.00184282
0.00672362
0.000548639
0.00539026
-0.0124192
0.00207138
-0.00622625
0.0084688
-0.0166278
0.0167195
-0.0117467
0.0167744
-0.0135035
0.00643503
-0.00658963
-0.0114258
-0.00727063
0.0377093
-0.0206797
-0.0108901
0.01973
0.00181785
-0.0112266
0.00453734
-0.0152704
0.0120666
0.0196225
-0.0167467
0.0168635
-0.0116042
-0.0156564
-0.0225859
0.0414011
-0.0223682
0.0135964
-0.0184937
0.0199488
0.00361357
-0.0155762
-0.00364772
-0.0239202
0.0685425
-0.0910018
0.102923
0.0141531
-0.0518713
-0.0169482
-0.0171002
0.00903795
0.0739302
-0.109992
0.0682602
0.0154083
-0.0642843
0.0742474
-0.0354303
0.0543882
-0.0568145
-0.0118757
0.00972914
0.0132802
0.0515677
-0.103382
0.104557
-0.0675203
0.049545
-0.0506079
0.048551
-0.0391628
-0.0370923
0.0175028
0.0820055
-0.0513834
-0.0599668
0.0475701
0.0255098
-0.0328824
0.00885335
0.0361463
-0.0685294
-0.0115698
0.0470832
0.0396341
-0.0424539
-0.0307195
0.0501113
-0.0464244
0.0396677
-0.00500023
-0.0290404
0.022843
-0.0604623
0.0858839
0.00334386
-0.0577441
-0.0361626
0.0773986
0.0200006
0.0141396
0.0248385
-0.106545
0.0707462
-0.0803532
0.0646519
-0.00396063
0.0172394
-0.0209276
-0.00244576
0.0336951
-0.0269793
-0.118889
0.0274356
0.0852701
0.0268122
-0.187615
0.176354
0.0223977
-0.0467383
0.0883397
-0.0576585
-0.0822924
0.0843179
-0.0671017
0.0451506
-0.0127582
0.0973633
-0.0691109
-0.037726
0.0832765
-0.107355
-0.0734715
0.128326
0.0195612
-0.104452
0.126315
-0.113457
0.0249964
-0.101892
0.164035
-0.0814442
-0.15114
0.124652
0.0466897
0.16354
-0.10268
0.0416723
-0.0152569
-0.0754252
-0.221815
0.12471
0.0550784
0.0143621
0.0505956
0.0316231
-0.0251991
-0.0989022
0.237424
-0.0840295
-0.189997
0.109375
0.0385715
0.0423953
-0.105839
0.00748456
0.0774917
-0.0783524
0.133758
-0.13397
0.194838
-0.238227
0.119988
-0.0309007
-0.101609
0.0847994
-0.0954711
0.052788
-0.0582271
-0.0698024
0.127267
-0.16534
0.229068
-0.0193954
-0.0583147
0.0953088
0.0734042
-0.289411
0.0971783
0.213296
-0.0539404
0.0417455
-0.0597808
-0.0164511
-0.0653583
0.0695263
-0.0768823
0.0757221
-0.197928
0.145664
0.0115483
0.00808201
-0.00835233
-0.0611397
-0.0345947
0.120669
-0.0533983
-0.0675169
0.163217
-0.13225
0.0026165
-0.0600624
0.193126
-0.315716
0.215726
-0.0508945
0.064602
0.0251196
-0.174449
0.222604
-0.0625903
-0.153703
0.107179
0.10638
0.120907
-0.317348
0.212692
-0.16899
0.21633
0.0517311
-0.188342
0.104717
-0.142576
-0.0381723
0.128084
-0.1224
-0.0794313
0.0198162
0.331515
-0.144142
0.0272503
0.07228
-0.230302
0.00765204
0.223021
-0.148422
-0.166682
0.136881
-0.00383122
0.121082
-0.231346
-0.157789
0.00163626
0.0006732
0.00145069
-0.00369455
0.00918303
-0.00421397
-0.0009529
0.00431494
-0.00555585
-0.00717428
0.01303
-0.00220532
0.00352227
0.00251168
-0.00603101
-0.0269141
0.0106687
-0.000340539
0.0327298
-0.0237149
-0.00387939
0.0217187
0.0458111
-0.0400431
-0.0399709
0.0349839
-0.0184123
-0.00919556
0.0379281
-0.00487631
-0.0714139
0.07246
-0.0358185
0.0103499
-0.0196308
-0.00358769
0.0637781
0.0221685
-0.0741309
0.00750784
-0.000557655
0.0231086
-0.00487213
0.0207998
-0.0155122
0.00698332
-0.0385183
0.0488111
0.00635951
-0.0713987
0.0423703
-0.050007
0.0945586
-0.0489341
-0.0359711
0.0266925
-0.0173928
0.0124495
-0.0487669
0.107204
-0.0207603
0.0218464
-0.00525966
-0.0178991
0.00907095
-0.0738119
0.0404489
-0.0544829
0.0586262
-0.0155513
-0.0209111
0.0452575
0.0510584
-0.107462
0.0263797
0.021976
0.0462302
-0.111209
0.0366229
0.0848523
-0.056154
-0.0397497
-0.0408613
0.0277117
0.012583
0.0268764
0.0795408
-0.119325
0.00498348
0.0925328
-0.111241
0.0206367
0.00726375
0.0821348
-0.0747581
0.0441472
0.0145413
0.00602774
0.0139183
-0.0417868
0.0637981
0.0321564
-0.0725525
0.0119603
-0.0960726
0.0117328
0.135096
-0.117669
-0.0208565
0.0304655
0.0398884
-0.221792
0.211406
0.0797549
-0.101666
-0.0636985
0.139406
-0.0453397
0.0572131
-0.0698661
0.0736251
-0.0211322
-0.0868057
-0.139458
0.192346
-0.0830216
0.048348
-0.0401496
0.0457567
0.0706727
0.0138343
-0.207108
0.145842
0.0309206
-0.0934305
0.165447
-0.144308
-0.0356708
0.0829546
-0.060931
-0.0970917
0.270055
-0.0369793
0.046223
-0.039367
-0.133056
0.160805
-0.120354
-0.0923253
-0.00144106
0.149145
-0.141894
0.0191998
0.097623
0.203991
-0.244238
0.0445412
-0.0109571
-0.113316
0.0662818
0.0859852
-0.41992
0.373221
-0.186078
0.358552
-0.19125
0.165635
-0.273475
0.155114
-0.0933542
0.0601978
0.00680591
0.104834
0.0133423
-0.350295
0.254676
-0.100657
0.063648
0.000637494
-0.0208988
0.0836607
-0.0994916
0.118612
0.0718453
-0.16692
0.0658162
-0.107133
0.112327
-0.0817997
0.133143
-0.0891864
0.152099
-0.0184027
-0.41583
0.212088
-0.0209475
0.106382
-0.246918
0.415316
-0.428073
0.392666
-0.226431
0.0917117
-0.0631823
0.100828
0.0156831
0.0452131
0.173963
-0.0179398
-0.465406
0.203003
0.163972
-0.381231
0.197692
-0.0580515
0.0180869
0.225152
0.131542
-0.143282
-0.0214088
-0.246255
0.00690746
-0.138922
0.152018
0.0435414
0.127894
-0.0529336
-0.125989
0.194007
-0.170243
-0.133984
0.115572
0.128239
-0.321589
0.218181
-0.0417523
0.103358
0.0759062
0.118826
-0.2584
-0.0325895
0.398287
-0.616503
0.212922
0.00257041
-0.0744058
-0.132526
0.354764
0.129399
-0.22173
-0.186333
0.0368459
0.0795329
0.198562
0.0459597
0.0656244
-0.000727994
0.00162409
-0.00240697
0.00995152
-0.0131401
0.00442151
0.00232414
-0.0122218
0.0153158
-0.0118118
0.0127133
-0.0250116
0.0129957
-0.00620418
0.00956744
0.00794595
0.00503181
0.0222804
-0.0519816
0.0469756
-0.0368292
-0.00306432
-0.0399829
0.0329915
0.0605625
-0.0338874
-0.0137755
0.0393092
-0.0565033
-0.0148508
0.101716
-0.0733093
-0.00903746
0.0322671
0.036338
-0.0274934
-0.0243577
-0.0242909
0.0458748
0.0318659
-0.0231568
-0.0214061
0.0159808
-0.0316449
-0.0411546
0.0411149
0.112523
-0.142124
0.0673461
-0.0354282
-0.0254601
0.0215777
0.036645
0.0457467
-0.0937083
0.0892388
-0.0568552
0.0598532
0.0743935
-0.157022
0.023365
-0.0349381
-0.0446096
0.1151
-0.0468172
0.0270449
-0.0895789
0.141188
-0.0438614
-0.0203405
-0.00169956
-0.0333379
-0.058874
0.0568474
0.0816112
-0.0784961
0.0920506
-0.0326505
-0.027373
-0.0458561
0.0682717
-0.0311137
-0.0115352
-0.0159552
0.0439082
0.0436701
-0.0926763
0.116274
-0.172716
0.150056
-0.00247409
0.161006
-0.212522
-0.0271541
-0.00577184
0.208418
-0.19063
-0.0282878
-0.0180754
-0.0880307
0.257742
-0.259387
0.0382242
-0.0181127
0.0829402
0.0367205
-0.0993782
0.12072
-0.029799
-0.125549
0.00209347
0.28198
-0.147654
-0.105461
0.316386
-0.136504
0.0609917
-0.312267
0.0466253
0.0674798
-0.0867106
0.0703192
0.235094
0.0456507
-0.268163
0.123045
0.100552
-0.188192
0.0486388
-0.20881
0.152634
-0.00769519
-0.0586038
0.0911135
-0.0302866
0.00381795
0.103387
0.0566425
-0.0474358
0.0417723
0.107276
-0.244662
0.0357957
-0.0855904
0.0443948
0.0449107
0.203927
-0.117414
-0.0550055
0.0915479
-0.254846
0.11892
-0.124667
0.119292
-0.199552
0.418243
-0.232605
-0.00898512
0.0556495
-0.0346438
-0.124871
0.278934
-0.331141
0.379834
-0.354074
-0.0359062
-0.0328013
0.470112
-0.218001
-0.0811808
0.126316
0.0890202
-0.0932911
-0.188556
0.210192
-0.242518
0.261941
-0.160091
-0.0759414
0.151585
0.0110537
0.332727
-0.305144
-0.118628
0.016844
0.105894
0.220649
-0.224428
0.0550675
-0.16076
-0.0250152
-0.0340273
0.0716148
-0.0384226
-0.124716
0.304562
-0.196412
0.31898
-0.688394
0.558835
-0.260413
0.25105
-0.140427
0.124856
-0.209483
-0.0545598
0.302783
-0.60518
0.123043
0.595786
-0.0681842
-0.0887778
-0.048444
-0.00362805
-0.0826723
0.0831513
-0.255113
-0.0938097
0.330024
-0.051644
0.158175
-0.107939
0.242262
-0.069767
-0.17547
0.0377314
0.00212502
0.309077
-0.501872
0.128379
0.0404579
0.231081
-0.200602
0.172327
0.029513
-0.183732
-0.0681702
0.100367
-0.300982
0.333947
-0.106079
-0.382572
0.563135
-0.342594
-0.0773447
0.579439
-0.292532
-0.251041
0.0819646
0.227884
0.328864
-0.612708
-0.0627538
0.0965578
0.0571481
-0.445744
0.000199649
-0.0026508
-0.0062368
-0.00479132
0.0120477
0.0052383
-0.0209961
0.0230635
-0.0212426
0.015895
-0.0178937
0.0220483
-0.0105221
0.0113561
-0.00512853
0.008033
0.00458519
-0.0141899
0.0163182
-0.0244249
0.0149983
-0.00296548
0.0190915
-0.0534023
-0.0168799
0.0640792
0.0236468
-0.0673229
0.0357552
-0.00419462
-0.0223609
0.000110454
-0.00835991
0.0744941
-0.116727
0.0761346
-0.0374726
0.0296653
-0.0201445
0.0226674
0.0254046
-0.0722986
-0.00949811
0.0382487
0.00178394
-0.0550448
-0.0737038
0.13012
0.00609414
-0.0241376
-0.0265302
0.0691759
0.0456824
-0.0662124
-0.00987419
0.000240646
0.00841898
-0.0137653
-0.0880481
0.127944
-0.116165
0.0709132
-0.0562756
-0.0134181
0.0864221
-0.0717095
0.0273395
-0.0198715
-0.0629001
0.0525092
0.110646
-0.176758
0.195436
-0.013575
-0.0565199
0.0460239
-0.145822
0.0286919
0.164697
-0.0518742
-0.0785651
0.0722679
0.0168341
0.042245
-0.0109897
-0.0171749
-0.0978856
0.0804236
0.0287544
-0.120305
0.175001
-0.344453
0.18669
-0.0850504
0.175745
-0.0916955
0.011638
0.0464517
0.0122052
-0.0497571
-0.0520029
0.11244
0.0735783
0.0446139
-0.121207
0.00837283
-0.011582
-0.0399925
0.0585993
0.0717114
-0.0996993
-0.17133
0.11776
0.0783312
-0.240041
-0.0234324
0.136539
0.273008
-0.0141558
0.03884
-0.277427
0.10802
-0.0841213
-0.00376089
-0.0180315
-0.0267187
0.030916
-0.0238596
-0.0590086
0.278422
-0.277583
0.180258
0.100139
-0.137415
0.0408371
0.123311
-0.204821
-0.100358
0.134296
-0.262071
0.377736
-0.345004
0.237279
-0.0985616
-0.0141505
-0.0412008
-0.0823562
0.269023
-0.133389
-0.0721225
-0.0344552
0.341761
-0.274929
0.00431573
0.472438
-0.59995
0.25456
0.135411
-0.235476
0.0136872
0.234162
0.0129194
-0.0513707
-0.272855
0.252118
0.176789
-0.192287
-0.124843
-0.205451
0.314936
0.0108216
-0.243902
0.00256655
0.194485
-0.0703347
0.19928
-0.0838859
-0.100916
-0.0332923
0.138587
-0.138769
-0.0907222
0.32905
-0.183986
0.043831
-0.132231
0.090753
-0.0599536
-0.109739
0.415503
-0.346309
0.0596501
0.163844
0.151281
-0.395886
-0.0967566
0.405382
-0.336274
0.465708
-0.286641
-0.271623
0.0255283
0.573549
-0.398937
-0.0567759
0.0760669
-0.0972679
0.347422
0.124636
-0.474877
0.184923
-0.144214
0.0648694
-0.192664
0.218919
0.306274
-0.331828
-0.00628974
-0.171722
0.117693
0.0427264
0.123946
-0.0425419
0.00551969
-0.180704
0.024815
-0.0132739
0.0742841
-0.0455421
0.628093
-0.478431
-0.437985
-0.110014
0.390407
0.168811
-0.483247
0.509219
0.019394
-0.0141295
-0.164744
0.164887
-0.103952
-0.257966
0.232487
0.236541
-0.479961
0.35839
0.197955
-0.203213
-0.483848
0.335261
0.47265
-0.641008
0.0322146
0.643673
0.40164
0.00426483
0.000931207
0.00962018
-0.00764
-0.00424765
-0.00473047
0.0119712
-0.0173665
0.00936879
-0.00109848
0.000791237
-0.000120425
-0.00612695
-0.00556415
0.00501483
-0.0108211
-0.00719306
-0.017764
0.085308
-0.0662017
0.0271242
-0.0166812
0.0152841
0.0141587
0.00550129
-0.0407286
-0.010082
0.0544093
-0.0406998
0.0286982
-0.0277806
-0.00884402
0.0325053
-0.00875158
0.00563132
0.00947389
-0.0683149
0.0609092
0.0189306
-0.0408868
-0.0131207
0.0696526
-0.0177068
-0.0324711
0.0549674
0.0394201
-0.0733381
-0.00313409
-0.092559
0.218334
-0.0419266
-0.0434597
-0.202705
0.169213
-0.0369649
-0.0171802
-0.00414407
0.0364042
0.0256604
0.0344887
-0.0658259
0.148005
0.0512469
-0.195974
-0.0222942
0.0678714
0.0317709
6.37285e-05
0.00451092
-0.059948
0.0499923
0.0185448
0.0260119
-0.066219
-0.0618262
-0.0269464
0.123685
0.0581329
-0.157592
0.0938813
-0.0317691
-0.0852371
0.175857
-0.126264
-0.100984
0.13813
0.0554083
-0.115476
0.0673909
-0.0181462
0.0298155
0.153791
-0.187619
0.166739
-0.379346
0.0295541
0.161103
0.0527871
0.0261811
-0.0262604
-0.180146
0.134585
-0.138074
0.0290303
-0.0233231
0.0659282
0.063956
0.15638
-0.160206
0.0999403
0.0738142
0.0528029
-0.305216
0.339586
-0.343894
0.293964
-0.370257
0.385541
-0.335945
-0.0327749
0.245079
-0.189019
0.0468875
0.0347301
-0.112065
0.231153
-0.134769
0.147514
-0.0999808
-0.105105
0.0849439
-0.107574
0.149379
-0.062091
0.224915
-0.433928
0.0719923
0.43359
-0.35804
0.268438
-0.208821
0.0114004
0.0206406
0.163417
-0.306834
0.0801504
-0.170801
0.251327
0.272374
-0.19169
0.0767164
-0.184019
0.192727
-0.277327
-0.232921
0.431134
0.0336908
-0.270517
0.281267
-0.125897
0.0489632
-0.078256
0.0864848
-0.0156173
-0.0901719
0.0444695
-0.269994
0.0392196
0.272427
-0.162234
-0.311233
0.382105
0.00244665
0.133203
-0.0751696
0.112701
-0.0737662
-0.182842
-0.00961473
0.203588
-0.110165
0.0219326
-0.480812
0.575523
-0.0897138
0.0612302
-0.244118
0.272479
-0.125388
-0.166156
0.117513
0.14771
-0.097787
-0.222882
0.573148
-0.136352
-0.579896
0.45906
-0.247675
0.24353
0.273356
-0.316682
-0.300991
0.420242
0.0942642
-0.0747234
-0.00352032
-0.271985
0.0132937
0.168267
-0.251943
0.490295
-0.543375
0.45033
-0.103397
-0.27523
0.623142
-0.133928
-0.560511
0.311459
-0.367644
0.21063
0.184959
-0.140732
0.339812
0.358221
-0.597804
-0.387193
-0.216577
-0.0116404
0.76599
0.13491
0.146245
-0.276745
-0.263135
0.543548
-0.844768
0.241173
0.35229
-0.15992
-0.203777
0.346734
-0.336101
0.626118
-0.246607
-0.167029
-0.137484
0.00538075
0.06453
0.364363
-0.429128
-0.211185
0.578694
-0.562199
-0.164199
0.14204
-0.00275761
0.00336033
-0.00264082
-0.0111135
0.0241769
-0.00468227
-0.00752425
-5.37513e-06
0.0184711
-0.00992771
0.00423805
0.00447755
-0.0188018
0.0515133
-0.0442687
0.0272406
-0.028775
-0.00656544
-0.0325314
0.074724
-0.0363372
0.0210775
-0.0380903
-0.000322571
0.0190211
0.016994
-0.00492746
-0.039048
0.00827746
-0.00548567
0.0597835
0.00698597
0.0268698
-0.104576
0.102339
-0.148496
0.118185
-0.0384907
0.0219677
-0.0237571
0.00382388
-0.0380699
0.0415563
-0.0166499
0.0323649
-0.106285
0.131669
-0.111716
0.154375
-0.221106
-0.00418117
0.0906534
0.103698
-0.0754576
0.120219
-0.0803581
0.0801894
-0.010311
-0.140382
0.0454053
0.0401267
-0.219169
0.154274
0.122498
-0.043312
-0.0500846
-0.0970112
-0.110444
0.263737
-0.0552005
-0.0830679
0.10349
-0.0965403
0.106797
0.103461
-0.0584938
-0.158694
0.050187
0.076738
-0.139744
0.028996
0.152173
-0.251667
0.142287
-0.0785293
-0.0971258
0.0309707
0.113633
0.0714334
-0.0770041
-0.107731
0.161309
0.0473271
-0.139705
0.238612
-0.0882233
-0.235976
0.260096
-0.0526809
-0.191105
0.278708
0.115819
-0.239775
0.0942522
-0.0134202
-0.0408714
-0.0749007
-0.217587
0.425616
-0.243137
-0.170605
0.133908
0.0362602
0.0385142
0.267788
-0.303777
0.177839
-0.0521206
-0.146794
0.0307378
-0.01201
0.000530168
0.0465623
-0.0122096
0.193812
-0.0583442
-0.105239
0.0816431
-0.0591285
-0.01457
0.266605
-0.115774
-0.165046
0.0486473
-0.36593
0.441508
0.190209
-0.264109
0.072361
-0.330167
-0.158717
0.643953
-0.0577708
-0.403993
0.212195
0.307246
0.0340502
-0.473687
-0.0399267
0.0702899
-0.039716
0.149317
-0.246314
0.394035
0.0343051
-0.300978
-0.224344
0.321569
-0.0458176
-0.0634165
0.204493
0.217929
-0.635583
0.531828
-0.656456
0.549607
0.0147741
0.16545
-0.158272
0.0734401
0.202481
-0.477716
0.0536029
-0.4335
0.477787
-0.28511
0.0423737
0.598637
-0.200454
-0.235651
-0.00326613
-0.203359
0.507298
-0.367099
0.100951
-0.175737
0.198239
0.149146
0.0617491
-0.391571
0.459538
-0.151762
-0.0747224
0.169838
-0.496545
0.309802
0.433604
-0.608126
-0.157081
0.439928
-0.27361
0.0364952
0.283742
-0.412573
-0.0919711
0.37451
-0.645674
0.42115
0.284991
0.314231
-0.387272
-0.155571
0.349486
-0.568854
0.546148
0.0037937
-0.40951
0.130189
0.130199
-0.0970257
0.219361
-0.180834
-0.276942
0.352957
0.104292
-0.894493
0.626018
0.103921
0.806226
-0.779867
-0.330133
-0.00479849
0.189049
0.0301395
-0.0346045
-0.309438
0.589689
-0.395135
-0.0852389
-0.012391
0.487084
-0.136903
-0.0339528
-0.699364
0.770997
-0.0864032
-0.160102
0.155851
-0.218486
-0.0124296
0.453608
0.133365
-0.426769
0.293366
-0.360842
-0.541625
-0.000599172
-0.00424649
0.00485439
0.0113452
-0.0255723
0.00949907
0.0153504
0.0141666
-0.0250423
0.00441281
-0.00287712
-0.0316305
0.0739155
-0.100396
0.0444143
0.0208396
0.0387715
-0.000147515
-0.0166942
-0.0732763
0.0522004
-0.0122008
0.046856
0.00887592
-0.0574812
-0.0118578
-0.0136597
-0.0107828
0.0919974
-0.0442911
-0.0667027
0.0733372
-0.0819916
0.137091
-0.0784137
0.00486825
0.000312047
0.0395821
-0.0467328
-0.00510158
0.0737637
-0.0600459
-0.0597681
0.0400099
0.0120804
0.141549
-0.161268
0.0637461
-0.0259332
-0.0239252
0.147124
-0.101367
0.0630093
-0.0426448
-0.103805
0.0598187
-0.027248
-0.14691
0.395642
-0.264203
-0.065278
0.15714
-0.0591467
-0.203324
0.0428943
0.18871
-0.0586687
0.208699
-0.285762
0.0759344
-0.0809082
0.169251
-0.106941
-0.00196088
0.0507062
0.0498752
0.0829503
-0.116046
-0.046008
-0.066961
0.120033
-0.0549512
0.1684
-0.123395
0.296962
-0.216512
0.067078
-0.139195
-0.184014
0.291789
-0.19804
-0.136216
0.175576
0.0178367
0.0436462
-0.0470194
0.0790821
-0.228885
0.0931948
0.472262
-0.22275
-0.428575
0.420258
-0.14235
0.0615059
-0.0269239
0.130777
-0.120183
-0.222786
0.308051
-0.0492017
0.0814336
-0.191274
-0.206756
0.15791
-0.140319
0.343863
-0.228806
0.225463
-0.0598764
-0.0801575
0.101183
0.153386
-0.130598
-0.217107
-0.144522
0.185547
-0.0546717
0.0289083
0.135181
-0.228955
0.155306
-0.0692299
0.124351
0.107876
-0.293434
-0.298753
0.313847
-0.0599868
0.434802
0.0356353
-0.634479
-0.00527346
0.366739
-0.0180993
-0.0185615
0.076263
0.114837
-0.365215
0.169228
0.0440595
0.341033
-0.173697
-0.196546
-0.068705
0.240481
0.00896105
-0.101266
0.164429
-0.11083
-0.759079
0.333399
0.215501
-0.329989
1.00285
-0.823766
0.106207
-0.57139
0.242075
0.343787
-0.255709
0.360428
0.0696505
0.354355
-0.158067
-0.169025
0.112849
-0.147152
0.0236781
-0.158803
0.0437625
0.329366
-0.40864
-0.0597466
-0.184951
0.812319
-0.248273
-0.672343
0.64005
0.259712
-0.430657
-0.0919445
0.148994
0.0717404
0.102409
-0.0788264
-0.405259
0.632153
-0.256288
-0.286919
-0.163822
1.00655
-0.593244
-0.0886667
-0.0512901
-0.286898
0.687112
-0.115377
-0.430097
-0.466497
0.470215
-0.163948
0.0601326
0.515055
-0.112174
-0.423
0.296611
0.0854551
-0.124019
-0.221648
0.396619
0.498172
-0.506363
-0.516505
0.512887
0.109261
-0.469746
0.414789
-0.508805
0.705269
-0.554335
-0.260963
0.305732
0.232683
-0.0744276
0.376002
-0.197789
-0.0812271
-0.253189
0.527611
-0.551235
0.13474
-0.210048
0.468025
-0.642292
0.492769
0.682757
-1.06514
0.123252
0.296114
-0.765689
0.0731043
0.303411
0.119278
0.708331
0.243699
-0.00523175
-0.000642168
0.00265509
0.0119753
-0.00368973
-0.00432802
-0.0148387
0.00374512
-0.0146611
0.000707623
-0.00645692
0.0309472
-0.0277231
0.0413012
0.00765714
-0.068562
-0.0153893
0.0518972
-0.0332374
0.101082
-0.0856493
0.0727413
-0.0705158
-0.0378511
0.048572
-0.018073
0.0783909
-0.0422785
-0.00495416
-0.0836625
0.132447
-0.116336
0.0183651
0.000704816
0.00346751
0.147293
-0.101807
-0.0261859
-0.0748091
0.0941761
-0.124598
0.10743
0.0653749
-0.0481297
-0.0340361
0.0329923
0.0366924
-0.0241425
-0.0723895
0.139984
-0.166252
0.164328
-0.146724
-0.140346
0.281083
-0.0496217
-0.0777949
0.16935
-0.330928
0.261183
-0.0443682
0.107859
-0.0724586
0.0368228
-0.00971727
0.0361495
0.00869026
-0.10708
-0.0195526
0.0318739
0.0684786
-0.128231
-0.0763029
0.0623204
-0.0512649
-0.0688272
0.227553
-0.0235135
-0.132188
0.169984
-0.077576
0.0870899
-0.157723
0.148791
-0.266082
0.149747
-0.121356
0.260074
0.111131
-0.267145
0.082235
0.0271203
0.0557958
-0.0310014
-0.104486
0.201905
-0.0744264
0.166496
-0.298456
-0.136
0.0926121
0.334952
-0.400035
-0.048285
0.207758
0.03281
-0.224898
0.212363
-0.0856681
-0.0899996
0.244647
-0.655678
0.913913
-0.0980201
-0.537908
0.408677
-0.227243
0.0552432
-0.0302333
0.0152259
0.0720408
0.0649974
-0.197456
0.206075
0.151188
-0.249583
-0.134276
0.11164
0.174925
-0.331411
-0.0216883
0.120321
-0.181819
0.214687
0.0990837
0.205536
-0.413723
0.0371343
0.480325
-0.135778
-0.319499
0.164488
-0.459572
0.619087
-0.259724
-0.168053
0.326138
-0.370682
0.522187
-0.053276
0.0308065
-0.518486
0.0628269
-0.0265201
0.371294
-0.135896
-0.344955
0.558063
-0.359541
0.0486935
0.32724
-0.182969
0.375304
-0.0804176
-0.686187
0.385975
-0.144254
0.548746
0.131348
-0.235033
0.0155571
0.0205644
-0.409258
0.25586
-0.323583
-0.191293
0.682609
-0.586608
0.0828742
0.0603426
0.361294
-0.375819
-0.110692
0.341302
0.251571
-0.756409
-0.0152064
0.73433
-0.448156
-0.264436
-0.0331146
0.204152
0.00986937
-0.16463
-0.202501
0.460765
0.384761
-0.728934
0.240775
0.757307
-0.379078
-0.591261
0.332395
-0.0445472
0.20614
0.234415
-0.194884
-0.499141
0.802111
-0.0481776
-0.406483
0.112456
0.227367
0.0577645
-0.958701
0.862394
-0.561676
-0.0957457
0.336353
0.0698898
-0.331591
-0.443524
0.425678
0.462626
-0.633432
0.376495
0.238463
0.08057
-0.444689
0.0825786
0.148251
0.12227
0.373284
-0.78368
0.600151
-0.0723248
-0.826199
0.695723
0.100145
-1.19174
1.03166
-0.443415
0.921458
-0.510044
0.284299
-0.43541
0.0986738
-0.207575
0.306617
0.0276758
0.174307
0.0626489
0.180542
-0.0160671
-0.74986
0.150305
0.00804336
0.00393542
-0.0110674
-0.0123185
0.0218851
-0.00657052
-0.00272075
-0.00182175
0.0344468
-0.00553632
0.0205289
-0.0392238
0.00709207
0.0287503
-0.0435436
0.0208517
-0.00137211
-0.0261981
-0.00615399
-0.0500323
0.108018
-0.0556315
0.00566257
0.0383667
-0.00173937
-0.0100552
-0.106682
0.148543
-0.0739079
0.029723
-0.00337702
0.0412816
-0.00735687
-0.065547
0.135587
-0.201956
0.0428915
0.00140183
0.199617
-0.0496891
-0.12327
0.0504088
0.02596
-0.0176192
0.128134
-0.201775
-0.0568453
0.203974
0.0206258
-0.298577
0.256232
-0.258214
0.251478
-0.0978472
-0.195995
0.194525
0.154232
-0.0728076
0.0132051
-0.174007
0.168993
-0.217502
0.196014
0.0425239
-0.0916346
0.0637732
0.0195262
-0.0916665
-0.0722487
0.197116
-0.108026
0.0325431
0.0801973
-0.0750701
-0.0815341
-0.0690945
-0.00140767
0.0488983
0.378647
-0.328643
0.138478
-0.30683
0.151103
0.01819
-0.0379685
0.0672384
-0.0308134
-0.0187149
-0.219119
0.107953
0.205169
0.208388
-0.459122
0.183537
-0.0250557
-0.116761
0.222148
-0.507753
0.345433
0.123302
-0.146502
0.171495
0.00105309
0.126347
-0.39107
0.0115509
0.102175
0.0784933
0.375881
-0.577657
0.362588
0.213166