# vtk DataFile Version 1.0
Net Charge Density
ASCII
DATASET STRUCTURED_POINTS
DIMENSIONS 256 128 1
ORIGIN 0 0 0
SPACING 0.15625 0.15625 1
POINT_DATA 32768
SCALARS rhonet float
LOOKUP_TABLE default
-0.000159395
-0.000194153
-0.000148992
-0.000157111
-0.000214811
-0.000128322
-0.000231384
-0.000198604
-9.61748e-05
-8.9091e-05
-0.000192422
-0.000131552
-0.000140522
-0.000140977
-0.000198314
-0.000148885
-0.000117797
-0.000125781
-0.000179853
-0.000197713
-0.000147026
-0.00013359
-0.000112927
-0.00014471
-0.000166136
-0.000108342
-0.000325366
-0.000158251
-0.000126554
-0.000163377
-0.000175947
-0.00017015
-0.000136778
-8.7122e-05
-0.00021304
-0.000140662
-0.000178357
-0.000161811
-0.000128803
-5.55465e-05
-0.000139951
-0.000130268
-0.000107786
-0.000161509
-0.000161741
-0.000162696
-0.000154439
-0.000144928
-0.000130236
-0.000160259
-8.63016e-05
-8.6358e-05
-0.000181078
-0.000162112
-0.000142046
-0.000121616
-0.000176716
-0.000120332
-0.00015919
-0.00013304
-0.000122407
-0.000120744
-0.000154812
-0.000132283
-0.000121968
-0.00013199
-0.000121495
-8.15079e-05
-0.000168294
-0.000142281
-0.000186521
-0.000120002
-0.000144246
-0.000163562
-0.000154032
-0.000154533
-0.000131275
-0.000123047
-0.000166681
-0.000216834
-0.000217526
-9.3022e-05
-6.9727e-05
-0.000210293
-0.000153678
-0.000148326
-0.000190608
-0.000189548
-9.31022e-05
-0.000135579
-0.000171993
-0.000152306
-0.000106881
-0.000141171
-0.000142319
-0.000168663
-0.00015895
-0.000122911
-0.000177468
-7.55687e-05
-7.313e-05
-0.000202967
-0.000109852
-0.000138803
-0.00013695
-0.000154889
-0.000224751
-0.000138993
-0.000173309
-0.000205547
-0.000139055
-0.00015364
-0.000166652
-0.000163312
-0.000118416
-0.0001269
-0.000185679
-7.03672e-05
-0.00010457
-0.000182534
-0.000111298
-0.000136537
-0.000110252
-0.000141912
-0.0001579
-0.000121702
-7.17408e-05
-0.00014109
-0.000109779
-0.000139649
-0.000141001
-0.000157887
-0.000115546
-0.000150428
-9.20172e-05
-0.000116126
-9.84489e-05
-0.000129346
-0.000182121
-0.000129555
-0.000136869
-0.000200715
-9.9377e-05
-0.000174269
-0.000184997
-0.000149775
-0.000173005
-0.000136887
-0.000146116
-0.000159334
-0.000113588
-0.000184879
-0.000178945
-0.000108427
-0.000191873
-0.000225149
-0.000119773
-0.000101634
-0.000123631
-0.000149333
-0.000115271
-0.00013973
-0.000109987
-0.000182843
-0.000119118
-0.000155874
-0.000101221
-0.000170551
-0.000122789
-0.000174898
-0.000200102
-0.000176222
-0.000197732
-0.000152336
-0.000180174
-0.000139136
-0.000135776
-0.000190289
-0.000159605
-0.000143089
-0.000105959
-7.14384e-05
-0.000161047
-0.000154059
-0.000160662
-0.000135745
-8.84516e-05
-0.000163444
-0.000131489
-9.54612e-05
-9.96106e-05
-0.000158419
-0.000217927
-7.7784e-05
-0.000155411
-0.000124881
-0.000202865
-0.000177569
-9.72935e-05
-0.000185309
-0.000170129
-4.01257e-05
-9.89037e-05
-0.000139672
-0.000208395
-8.46527e-05
-0.000135844
-0.000280712
-0.000188892
-0.000143735
-0.00018396
-0.000150909
-0.000148829
-8.92403e-05
-0.000139672
-0.00016948
-0.000166784
-6.08262e-05
-0.000169707
-0.000114884
-0.000190745
-0.00023782
-0.000173033
-0.000153855
-0.000171261
-0.000145598
-0.000158748
-0.000213421
-0.000161157
-0.000182917
-0.000167737
-0.00015909
-0.000181584
-0.000155522
-0.000125548
-0.0001887
-0.000109073
-0.000197214
-9.49877e-05
-7.40976e-05
-4.70203e-05
-0.000125893
-0.000146842
-0.000222858
-0.00012803
-0.000148989
-0.000142373
-0.000146448
-0.000119466
-8.50737e-05
-0.00016449
-0.000142529
-0.000249883
-0.000202258
-0.000141369
-0.000116169
-0.000166793
-0.000126443
-0.000163098
-0.000178355
-0.00016137
-0.0001393
-0.000220387
-0.000153776
-0.000168404
-0.000115655
-0.000155103
-9.55109e-05
-0.000202969
-0.000120038
-0.00020025
-0.000205568
-0.000248359
-0.000224418
-0.000173548
-0.000117086
-0.000181378
-0.000245689
-0.000174741
-0.000200106
-0.000175624
-0.000185838
-0.00014791
-0.000141151
-0.000162343
-0.000200783
-0.000227526
-0.000125951
-0.00016832
-0.000217774
-0.000191643
-0.000213988
-0.000174778
-0.000250657
-0.000143912
-0.000127681
-0.000193592
-0.000247824
-0.000209016
-0.000117764
-0.000208381
-0.000194797
-0.000106288
-0.000149794
-0.000176961
-0.00016436
-0.000181199
-0.000137081
-0.000285687
-0.000169064
-0.000201277
-0.000220116
-0.000158908
-0.000140141
-0.000196547
-0.000177712
-0.000202866
-0.000147072
-0.000151518
-0.000151204
-0.000158932
-0.000188707
-0.000221254
-0.000195876
-0.000132995
-0.000148247
-0.000137647
-0.000101455
-0.000167173
-0.000178514
-0.000198239
-0.000218628
-0.000166003
-0.000212038
-0.000181069
-0.000158671
-0.000217507
-0.000232193
-0.000115282
-0.000214118
-0.000173334
-0.00023721
-0.000173092
-0.000207135
-0.000213481
-0.000234398
-0.000206315
-0.000177498
-0.000130226
-0.000184152
-0.000198168
-0.000224545
-0.000166639
-0.000135945
-0.000213074
-0.000130805
-0.000168983
-0.000100653
-0.000160594
-0.000154166
-0.000156491
-0.000125895
-0.000210302
-0.000120345
-0.000154159
-0.000234307
-0.000194938
-0.000163615
-0.000208793
-0.000168543
-0.000162614
-0.000143508
-0.000155651
-0.000126004
-0.000156112
-0.00013783
-0.000131893
-0.000114061
-0.000116549
-0.000198684
-0.000215109
-0.000174792
-0.000171324
-0.000134618
-0.000153138
-0.000166931
-0.000188149
-0.000156511
-0.000134617
-0.000240133
-0.000168336
-0.000161466
-0.000221532
-0.000193099
-0.000213507
-0.0002065
-0.000174937
-0.000175583
-9.31277e-05
-0.000119651
-0.000206592
-0.000164223
-0.000122206
-0.000188144
-0.000158577
-0.000139772
-0.000105286
-0.000196084
-0.000180334
-0.000257879
-0.000206057
-0.000188169
-0.000115716
-0.000212516
-0.000175816
-0.000174123
-0.000147055
-0.000168126
-0.000174015
-0.000200199
-0.000160597
-0.000169679
-0.000127394
-0.000185984
-0.000106957
-0.000253735
-0.000159391
-0.000119517
-0.000238069
-9.95946e-05
-0.000200357
-0.000109556
-0.000255606
-0.000197527
-0.000171188
-0.000133881
-0.000118551
-0.000137582
-8.36658e-05
-0.000155405
-0.000221446
-0.000166156
-0.000204022
-0.000199413
-0.000153481
-0.000183974
-0.000151703
-0.000200432
-0.000146449
-0.000127854
-0.000148754
-8.8267e-05
-0.000173602
-0.000258588
-0.000158253
-0.000193521
-0.000127568
-0.000144629
-0.000167842
-0.000159914
-0.000142099
-0.000245839
-0.000140829
-0.000167507
-0.000130597
-0.000166754
-0.00027502
-0.000145664
-0.000166838
-0.000149711
-0.000217479
-0.000178165
-0.000139823
-0.00018604
-0.000121812
-0.000211967
-0.000154447
-0.000158234
-0.000174261
-0.00016613
-0.000162894
-0.000204114
-0.000173022
-0.000150818
-0.000228121
-0.000190914
-0.000152587
-0.000182046
-0.000237231
-0.000159944
-0.000183744
-0.000165707
-0.000122345
-0.000176409
-0.000203088
-0.000201269
-0.000182531
-0.000150113
-0.000105021
-0.000213426
-0.000114392
-0.00017086
-9.846e-05
-0.00019325
-0.000180326
-0.000223143
-0.00017292
-0.000149462
-0.000164693
-0.000156494
-0.00014996
-0.000147543
-0.000199116
-0.000166912
-0.00012618
-0.000168599
-0.000179389
-0.000168355
-0.00011358
-0.00015531
-0.00013457
-0.000178592
-0.000172184
-0.000188692
-0.000186984
-0.000145322
-0.000135718
-0.000105
-0.000163689
-0.000163546
-0.000220185
-0.000247033
-0.000200544
-0.000219239
-0.000107381
-0.000212529
-0.000114355
-0.00017713
-0.000135532
-0.000184638
-0.000215937
-0.000178957
-0.000140327
-0.000104321
-0.000174548
-0.000139657
-0.000186118
-0.000131849
-0.000146772
-0.000183313
-0.000165027
-0.000180458
-0.000194104
-0.000198404
-0.00022172
-0.000232939
-0.000186653
-0.000206688
-0.000190744
-0.000194479
-0.000200817
-0.000150566
-0.00026418
-0.000165877
-0.000227321
-0.000129346
-0.000181168
-0.000182956
-0.000156176
-0.000131231
-0.000241749
-0.000144968
-0.000258718
-0.000213501
-0.000204802
-0.000237842
-0.000206182
-0.000200046
-0.000175172
-0.000233612
-0.000241065
-0.000164839
-0.000172432
-0.000134079
-0.000105709
-0.00015972
-0.000208316
-0.000189529
-0.000174506
-0.000153953
-0.000162814
-0.000155099
-0.000216642
-0.000241947
-0.000193496
-0.000157511
-0.000186587
-0.000217543
-0.000162514
-0.000157572
-0.000225581
-0.000185597
-0.00013802
-0.000144128
-0.000175976
-0.000147637
-0.000181431
-0.000144597
-0.00016805
-0.00019444
-0.000181028
-0.000229482
-0.000153066
-0.000230878
-0.000197056
-0.000173008
-0.000193396
-0.000201797
-0.000249203
-0.00018454
-0.000170975
-0.000176089
-0.00021647
-0.00022553
-0.000174021
-0.000242464
-0.000177827
-0.000219581
-0.000191926
-0.000223772
-0.000171704
-0.000156591
-0.000237182
-0.000152859
-0.000139684
-0.00013221
-0.00013712
-0.000155797
-0.000136776
-0.000222386
-0.000205491
-0.000172426
-0.000181192
-0.000199899
-0.000144138
-0.000229122
-0.000126752
-0.000188936
-0.000172076
-0.000149579
-0.000223147
-0.000246603
-0.000143832
-0.0001654
-7.83417e-05
-0.000140871
-0.000119635
-9.03961e-05
-0.000217401
-0.000181191
-0.000240762
-0.000136952
-0.000161956
-0.000262836
-0.000199069
-0.000222833
-0.000192696
-0.00017678
-0.000177118
-0.000193678
-0.000144473
-0.000237434
-0.000183007
-0.000203659
-0.000181052
-0.000160009
-0.000150871
-0.000189787
-0.000171968
-0.000160534
-0.000180374
-0.000139639
-0.000198668
-0.000239955
-0.000239809
-0.000148634
-0.000235703
-0.000227674
-0.000235901
-0.000177321
-0.000246233
-0.000147338
-0.000230886
-0.000176063
-0.000231771
-0.000175257
-0.00017692
-0.000203012
-0.00017712
-0.000164518
-0.000125572
-0.000159378
-0.000218379
-0.000120003
-0.000184644
-0.000157667
-0.000170379
-0.000186047
-0.000196732
-0.000217128
-0.000186498
-0.000174877
-0.000167121
-0.000136269
-0.000176218
-0.000189581
-0.000194178
-0.000187156
-0.000148583
-0.000242837
-0.000277354
-0.000215213
-0.000146037
-0.000205083
-0.000221583
-0.000165114
-0.000198633
-0.000134713
-0.00021236
-0.000153078
-0.000153206
-0.000247225
-0.000184507
-0.000182576
-0.000198623
-0.00015837
-0.000135067
-0.000140705
-0.000182503
-0.000190889
-0.000155395
-0.000124772
-0.000169963
-0.000107999
-0.000191502
-0.000174293
-0.000176378
-0.00019219
-0.000104262
-0.000130588
-0.000162914
-0.000172228
-9.95569e-05
-0.000181854
-0.000183664
-0.000164402
-0.000139264
-0.000227439
-0.000130712
-0.000202868
-0.000137097
-0.000196053
-0.00018564
-0.00014271
-0.000128138
-0.000166185
-0.000173273
-0.00013875
-0.000166527
-0.00018262
-7.99557e-05
-0.000153959
-0.000167847
-0.000211148
-0.000163042
-0.000227344
-0.000189079
-0.000119259
-0.000202854
-0.000185972
-0.000150557
-0.000223012
-0.000187339
-0.000161015
-0.000171957
-0.000220902
-0.000216092
-0.00016161
-0.000145338
-0.000201538
-0.000200033
-0.0001942
-0.00014605
-0.000181371
-0.00019054
-0.000196277
-0.000155197
-0.000211299
-0.000236559
-0.000208946
-0.000159417
-0.00018865
-0.00018739
-0.000186994
-0.000187689
-0.000223768
-0.00017687
-0.000190783
-0.000193839
-0.000137278
-0.000179164
-0.0001627
-0.000108841
-0.000212097
-0.000227247
-0.000192863
-0.000114931
-0.000190403
-0.000189679
-0.000252926
-0.000240468
-0.00020836
-0.000182135
-0.000153652
-0.000181386
-0.000170989
-0.000203118
-0.000235217
-0.000166906
-0.000188094
-0.000168963
-0.000175069
-0.000201471
-0.000192039
-0.000242383
-0.000138457
-0.000225784
-0.000161714
-0.000127234
-0.000144798
-0.000202029
-0.000213849
-0.000174998
-0.000194151
-0.000159769
-0.000137777
-0.000203964
-0.000252091
-0.000192147
-0.000177669
-0.000198173
-0.000196496
-0.000210432
-0.000143992
-0.000228222
-0.000228955
-0.000160166
-0.000169674
-0.000145902
-0.000185242
-0.000176138
-0.000236732
-0.000193497
-0.000138793
-0.000186995
-0.0001243
-0.000141364
-0.000180777
-0.00016111
-0.000176408
-0.000213919
-0.000255077
-0.0002708
-0.000109831
-0.000156966
-0.000205765
-0.000207003
-0.000220609
-0.000201907
-0.000218814
-0.000195891
-0.000288838
-0.000196969
-0.000205075
-0.000155394
-0.000137927
-0.00020042
-0.00023386
-0.000188513
-0.00018706
-0.000175007
-0.000158853
-0.000202033
-0.000236203
-0.000201785
-0.000166382
-0.000136755
-0.0001548
-0.000160968
-7.70413e-05
-0.000196209
-0.000240183
-0.00016301
-0.000177745
-0.00014684
-0.000217583
-0.000231803
-0.00018323
-0.000165483
-0.000180995
-0.000146296
-0.000112769
-0.000114958
-0.000106518
-0.000199307
-0.000137914
-0.000137724
-0.000141155
-0.00021907
-0.000121439
-0.000295275
-0.000191432
-0.000213185
-0.000199746
-0.000195918
-0.000218606
-0.000101985
-0.000119324
-0.000154711
-0.000228886
-0.000103649
-0.000163799
-0.000168464
-0.000193783
-0.000170483
-0.000231933
-0.000187772
-0.00023497
-0.000237054
-0.000167533
-0.000197804
-0.000153769
-0.000196855
-0.000129332
-0.000160035
-0.000204308
-0.000157682
-0.000153173
-0.000195891
-0.000218692
-0.000216972
-0.000201817
-0.000128438
-0.000179359
-0.00022245
-0.000206637
-0.000248164
-0.000151146
-0.000126337
-0.000190543
-0.000174741
-0.000240634
-0.000225205
-0.000227623
-0.000201073
-0.000197231
-0.00018824
-0.000193473
-0.000143091
-0.000207087
-0.000196015
-0.00017918
-0.000141823
-0.000129808
-0.000254015
-0.000187293
-0.000185754
-0.000267714
-0.000171397
-0.000202494
-0.000219746
-0.000148117
-0.000230768
-0.000140833
-0.000191884
-0.000182807
-0.000209831
-0.000209975
-0.000208818
-0.000110517
-0.000194514
-0.000243131
-0.000215375
-0.000181782
-0.000138476
-0.000200544
-0.000218535
-0.000234293
-0.000149722
-0.000182581
-0.000212472
-0.00017682
-0.000149587
-0.000186871
-0.000139495
-0.000171678
-0.000200302
-0.000219162
-0.000194297
-0.000253791
-0.000186752
-0.000192277
-0.000176594
-0.000159326
-0.000169665
-0.000186181
-0.000242734
-0.000164484
-0.000168802
-8.23283e-05
-0.00015164
-0.000228796
-0.000270893
-0.000147967
-0.00017065
-0.000161434
-0.000126733
-0.000215029
-0.000133837
-0.000191334
-0.000250407
-0.000245081
-0.000208337
-0.000144852
-0.000199655
-0.000156876
-0.000129385
-0.000169752
-0.00018743
-0.000240317
-0.000206135
-0.000165751
-0.000123607
-0.000155321
-0.000163354
-0.000157043
-0.000145028
-0.000183287
-0.000177572
-0.000183396
-0.00015842
-0.000213507
-0.000285506
-0.000280664
-0.000152878
-0.000213953
-0.00015018
-0.000218521
-0.000175037
-0.000187869
-0.00013236
-0.000144743
-0.000198764
-9.34099e-05
-0.000210756
-0.00019959
-0.00018688
-0.000184617
-0.000280385
-0.000194787
-0.000178255
-0.000214775
-0.00014062
-0.000167018
-0.000131817
-0.000102498
-0.000129684
-0.000169673
-0.000131847
-0.000105216
-0.000137738
-0.000203016
-0.000166116
-0.000264891
-0.000126329
-0.00014669
-0.000191142
-0.000176296
-0.000150371
-0.000134704
-0.000256536
-0.000177014
-0.000154978
-0.000181342
-0.00013484
-0.000201445
-0.00024665
-0.000199002
-0.000106849
-0.00017234
-0.000184953
-0.000143978
-0.000203449
-0.000138156
-0.000233375
-0.000159048
-0.000263356
-0.000145014
-0.000183086
-0.000159011
-0.000257447
-0.000202725
-0.00017066
-0.000146678
-0.00019465
-0.000149781
-0.000192352
-0.000134561
-0.00018751
-0.000190385
-0.000223387
-0.000190261
-0.000179298
-0.000171195
-0.000154827
-0.000210865
-0.00021973
-0.000147943
-0.000226793
-0.000134174
-0.000138192
-0.000248197
-0.00026411
-0.000159712
-0.000209721
-0.00016244
-0.000182669
-0.000190548
-0.000181964
-0.000221531
-0.000168742
-0.000234816
-0.000158914
-0.0002002
-0.000125223
-0.000143068
-0.000129065
-0.000183051
-0.00016697
-0.000210346
-0.000185208
-0.000240205
-0.000219097
-0.00018286
-0.000233404
-0.000203786
-0.000202543
-0.000226583
-0.000205551
-0.000190901
-0.000178073
-0.000193449
-0.000125049
-0.000195084
-0.000163329
-0.00011774
-9.90261e-05
-0.000181012
-0.000173698
-0.000207473
-0.000233727
-0.000181567
-0.000193962
-0.000211924
-0.000185858
-0.000253351
-0.000179219
-0.000136884
-0.000197843
-0.000179533
-0.000166576
-0.000169192
-0.000216127
-0.000171635
-0.000223169
-0.000165171
-0.000128257
-0.000186822
-0.0001272
-0.000151223
-0.000200491
-0.000166819
-0.000158217
-0.000155793
-0.000236144
-0.000157423
-0.000281989
-0.000207331
-0.00020531
-0.000216196
-0.000149518
-0.000140426
-0.000169517
-0.000220383
-0.000186449
-0.000141134
-0.000195009
-0.000211728
-0.00018935
-0.000103141
-0.000175903
-0.000234052
-0.000229969
-0.000221613
-0.000160232
-0.000241736
-0.000279915
-0.000212646
-0.00014653
-0.000271187
-0.000223146
-0.00022875
-0.000195034
-0.000181957
-0.000180224
-0.000123573
-0.000226151
-0.000175861
-0.000132763
-0.000159316
-0.000142739
-0.00016557
-0.000146576
-0.000204489
-0.000222602
-0.000208115
-0.000176454
-0.000135529
-0.000141535
-0.00024234
-0.000217226
-0.000154945
-0.000159248
-0.000206064
-0.000238748
-0.000267446
-0.00028382
-0.000186542
-0.000157518
-0.000153134
-0.000184245
-0.000224487
-0.000257912
-0.000237532
-0.000211795
-0.000193732
-0.000190366
-0.000172139
-0.000206441
-0.000216936
-0.000172701
-0.000190144
-0.000279583
-0.000168537
-0.000123353
-0.000195269
-0.000145279
-0.00017413
-0.000221575
-0.000234234
-0.000144529
-0.000208247
-0.000207386
-0.000173087
-0.000174719
-0.000174755
-0.000128773
-0.000190684
-0.000189365
-0.000196732
-0.000188061
-0.000191315
-0.000160808
-0.000155025
-0.000162247
-0.000183862
-0.000187713
-0.00024454
-0.000214532
-0.000149346
-0.000215713
-0.000272084
-0.000173465
-0.000219419
-0.000156394
-0.000190973
-0.000186115
-0.000198502
-0.000112986
-0.000209627
-0.000183869
-0.000252374
-0.000142188
-0.000136586
-0.000201934
-0.000242428
-0.000173213
-0.000197446
-0.000170447
-0.000242605
-0.000204409
-0.000184997
-0.00015469
-0.00019531
-0.000185894
-0.000196084
-0.000158673
-0.000122497
-0.000201621
-0.000227051
-0.000205391
-0.000170198
-0.00022875
-0.000188077
-0.000201136
-0.000238183
-0.000184564
-0.000196461
-0.000132304
-0.000204693
-0.000203716
-0.000212759
-0.000204825
-0.000204249
-0.00017405
-0.000184818
-0.000228738
-0.000187969
-0.0002178
-0.000196807
-0.000146743
-0.000192981
-0.0001895
-0.000196675
-0.000205064
-0.000216747
-0.000182409
-0.000124092
-0.000205816
-0.000164266
-0.000171239
-0.000175675
-0.000192754
-0.000167773
-0.00015895
-0.000162691
-0.000222134
-0.000109309
-0.000138209
-0.000121544
-0.000188284
-0.000170231
-0.000172931
-0.000168396
-0.000203356
-0.000170718
-0.000186209
-0.000222308
-0.000183046
-0.000133708
-0.000163195
-0.000108327
-0.000253941
-0.00022256
-0.000232612
-0.000110059
-0.000224901
-0.000129099
-0.000173771
-0.000209234
-0.000182642
-0.000220616
-0.00013354
-0.000209108
-0.000222441
-0.000153063
-0.000202085
-0.000164577
-0.000234198
-0.000136719
-0.000130281
-6.38949e-05
-0.000163312
-0.000156709
-0.000202884
-0.000177497
-0.000148756
-0.000115437
-0.000188373
-0.000262092
-0.000167834
-0.000186795
-0.000134521
-0.000147173
-0.000162198
-0.000177895
-0.000216687
-0.000207124
-0.000244245
-0.000158916
-0.000203752
-0.000240944
-0.000183782
-0.000211283
-0.000187572
-0.000259325
-0.000103427
-0.000149888
-0.000173309
-0.000209863
-0.000187923
-0.000190012
-0.000219839
-0.000131327
-0.000184872
-0.000231653
-0.000177835
-0.000231847
-0.000176063
-0.000143473
-0.000190051
-0.000203921
-0.000195439
-0.000227993
-0.000206067
-0.000153848
-0.000203711
-0.000235854
-0.000174085
-0.000184373
-0.000157105
-0.000234185
-0.000130099
-0.000107766
-0.00020861
-0.000205051
-0.000197948
-0.000181554
-0.000187415
-0.000235207
-0.000217723
-0.000204189
-0.000216391
-0.000215316
-0.00018044
-0.00021666
-0.000153228
-0.000164214
-0.000202021
-0.000236204
-0.000159718
-0.000223819
-0.000141644
-0.000260983
-6.9344e-05
-0.000206442
-0.00016148
-0.000245491
-0.000130321
-0.000136263
-0.000159556
-0.00012673
-0.000143257
-9.96776e-05
-0.00026018
-0.00010821
-0.000221901
-0.000226063
-0.000237477
-0.000177237
-0.00025202
-0.000148643
-0.000242586
-0.000164872
-0.000190547
-0.000257925
-0.000201658
-0.000150068
-0.000201685
-0.000237811
-0.000163225
-0.000177395
-0.000230733
-0.00023856
-0.000130557
-0.000143075
-0.000229985
-0.000165131
-0.000171763
-0.000274296
-0.000188342
-0.000220372
-0.000176545
-0.000203477
-0.000211786
-0.000153745
-0.000167797
-0.000178227
-0.000161719
-0.000170263
-0.000140494
-0.000181114
-0.000258283
-0.00021501
-0.000180844
-0.000206901
-0.000146958
-0.000166562
-7.75753e-05
-0.00018321
-0.000185554
-0.000241442
-0.00021792
-0.000199788
-0.000183086
-0.000151652
-0.000166573
-0.000166392
-0.000166637
-0.000179124
-0.000150224
-0.00029347
-0.000296819
-0.000189084
-0.000211745
-0.000130106
-0.000156431
-0.00017064
-0.000175897
-0.000244599
-0.000211242
-0.000150325
-0.000190701
-0.000194085
-0.000202384
-0.000163733
-0.000170929
-0.000185614
-0.00014292
-0.000170549
-0.000167
-0.000138899
-0.000149596
-9.88487e-05
-0.000152758
-0.000174636
-0.000130916
-0.000210269
-0.000206798
-0.000132514
-0.000150074
-0.000171677
-0.000160071
-0.000162699
-0.000190473
-0.000246447
-0.00020101
-0.000182269
-0.000202872
-0.000242725
-0.000187015
-0.000214457
-0.000179722
-0.000160935
-0.000185282
-0.000196794
-0.000211367
-0.000136189
-0.000153868
-0.000138674
-0.000236534
-0.000231898
-0.000195177
-0.000195891
-0.000118612
-0.000110642
-0.00019783
-0.000224339
-0.000232696
-0.0001986
-0.000121868
-0.000138141
-9.88804e-05
-0.000166917
-0.0002341
-0.000131335
-0.00020703
-0.000184292
-0.000200911
-0.000142082
-0.000161888
-0.000230081
-0.000175248
-0.000140359
-0.00017347
-0.000159152
-0.000213848
-0.000241653
-0.000180508
-0.000214601
-0.000232553
-0.000168926
-0.000186821
-0.000168464
-0.000139168
-0.000168944
-0.000157985
-0.00017657
-0.000123452
-0.000200383
-0.00015897
-0.000124193
-0.000130213
-9.72143e-05
-0.000145165
-0.000252095
-0.000128734
-0.000185577
-0.000147261
-0.000192754
-0.000244182
-0.000147597
-0.000218944
-0.000173992
-0.0002251
-0.000153151
-0.000186368
-8.99395e-05
-0.000171564
-0.000176158
-0.000153442
-0.00023061
-0.000192363
-0.000185992
-0.000174124
-0.000160203
-0.000205065
-0.000165318
-0.000195308
-0.000176349
-0.000193918
-0.000247591
-0.000190621
-0.000182946
-0.000185389
-0.000221243
-0.000208615
-0.000235797
-0.000199678
-0.00020992
-0.000201422
-0.000147239
-0.000251936
-0.000133792
-0.000145782
-0.00022347
-0.000145203
-0.0001843
-0.000209932
-0.00019998
-0.000183392
-0.000252739
-0.000168836
-0.000176633
-0.000149827
-0.000203387
-0.000145088
-0.000233643
-0.00024844
-0.000176659
-0.000237696
-0.000207346
-0.000201301
-0.000139357
-0.000166927
-0.000203964
-0.000221808
-0.000149615
-0.000185878
-0.000197145
-0.000236405
-0.000295668
-0.000220883
-0.000257678
-0.00017009
-0.000160421
-0.000219491
-0.000225678
-0.000166504
-0.000172119
-0.000103876
-0.00010062
-0.00013615
-0.000139967
-0.000238836
-0.000192982
-0.000135238
-0.000194395
-0.000203727
-0.000181837
-0.00012481
-0.00014142
-0.000200482
-0.000146198
-0.000208017
-9.51127e-05
-0.000163556
-0.000175647
-0.000198164
-0.000251324
-0.000155365
-0.000190011
-0.000198083
-0.000137325
-0.00016419
-0.000259574
-0.000178301
-0.000207345
-0.000216435
-0.000234325
-0.000132451
-0.000173206
-0.000190538
-0.000144038
-0.000177397
-0.000200792
-0.000189546
-0.000174229
-0.000161103
-0.000171913
-0.000170566
-0.000205083
-0.000221559
-0.000190943
-0.000253967
-0.000202811
-0.000153529
-0.000195745
-0.000185753
-0.000185981
-0.000174058
-0.000209985
-0.000208992
-0.000163976
-0.000185133
-0.000275696
-0.000211613
-0.000139821
-0.0001612
-0.000204143
-0.000167492
-0.000210651
-0.000155736
-0.000165628
-0.00023319
-0.000235947
-0.000160606
-0.000214224
-0.000224128
-0.000211682
-0.000262126
-0.000208823
-0.00016579
-0.000119117
-0.000188807
-0.000214966
-0.000175001
-0.000172337
-0.000167549
-0.000129665
-0.000139651
-0.000215894
-0.000163458
-0.000137955
-0.000163557
-0.000151011
-0.000196955
-0.00016853
-0.000157668
-0.000192844
-0.000173405
-0.000146302
-0.000120457
-0.000200067
-0.00022372
-0.000156172
-0.000162766
-0.000173821
-0.000204977
-0.00016264
-0.000205992
-0.000109702
-0.000186456
-9.49498e-05
-0.000183163
-0.000210163
-0.00021603
-0.000149789
-0.000168865
-0.000164137
-0.000197932
-0.000214153
-0.000230399
-0.000202361
-0.000181527
-0.000188273
-0.000186484
-0.000161226
-0.000124596
-0.000200219
-0.000157822
-0.000170865
-0.000163814
-0.000202548
-0.000140303
-0.000127669
-0.000197658
-0.000132466
-0.000213075
-0.000195911
-0.000228957
-0.000138421
-0.000234723
-0.000193019
-0.000148163
-9.3126e-05
-0.00020171
-0.000177069
-0.000199056
-0.000162807
-0.000197708
-0.000184827
-0.000184567
-0.000161613
-0.000179697
-0.000177491
-0.000222882
-0.000200337
-0.000164362
-0.000215097
-0.000241932
-0.000124785
-0.000203118
-0.000216069
-0.000255507
-0.000216916
-0.000190317
-0.00013797
-0.000168441
-0.000218954
-0.000192329
-0.000147521
-0.00025275
-0.000204351
-0.000199604
-0.000238162
-0.000152182
-0.00017982
-0.000174575
-0.000187308
-0.00024066
-0.000202613
-0.000259778
-0.000170821
-0.00026036
-0.00022356
-0.000189811
-0.000133075
-0.000154686
-0.000184187
-0.000152166
-0.000153
-0.000184521
-0.000217525
-0.000143895
-0.000184264
-0.000201929
-0.000190233
-0.000168864
-0.000135879
-0.000154352
-0.000198322
-0.000168837
-0.000147602
-0.000225802
-0.000194994
-0.000183889
-0.000251118
-0.000141938
-0.000193098
-0.000166077
-0.000171894
-0.000250959
-0.000195941
-0.00018202
-0.000159725
-0.000197794
-0.000150532
-0.00021412
-0.000126273
-0.000147976
-0.000132093
-0.000127007
-0.000194448
-0.00014619
-0.000234986
-0.000184845
-0.000212569
-0.000235629
-0.00017384
-0.000216501
-0.000198511
-0.000162914
-0.000235712
-0.000210415
-0.000216258
-0.000199047
-0.000196122
-0.000197036
-0.000168138
-0.000248945
-0.000171361
-0.000127977
-0.00020174
-0.000227306
-0.000185265
-0.000215721
-0.000161627
-0.000219301
-0.000133463
-0.000136974
-0.000214361
-0.000139904
-0.000240953
-0.000258035
-0.000171938
-0.000233159
-0.000166753
-0.000188649
-0.000169637
-0.000132821
-0.000169554
-0.000169232
-0.000179647
-0.000176115
-0.000218336
-0.000172463
-0.000173641
-0.000205398
-0.000185536
-0.000219098
-0.000203479
-0.000199931
-0.000163104
-0.000219768
-0.000221185
-0.000211109
-0.000196815
-0.000126424
-0.000206797
-0.000120702
-0.000134833
-0.000143879
-0.000155392
-0.000195824
-0.000153234
-0.000145026
-0.000172681
-0.000221679
-0.000128271
-0.000174185
-0.000154424
-0.000142951
-0.000253369
-0.00022652
-0.000238524
-0.000156836
-0.00019483
-0.000170572
-0.000191035
-0.000178871
-0.000229215
-0.00019025
-0.000213016
-0.000195016
-0.000177407
-0.000241346
-0.000221237
-0.000193782
-0.000211537
-0.000141221
-0.000127062
-0.000131322
-0.000217737
-0.000120859
-0.00023695
-0.000190609
-0.000204431
-0.000221111
-0.000196827
-0.000143505
-0.000225702
-0.000191741
-0.000160334
-0.000177018
-0.000230784
-0.000201135
-0.000180908
-0.000209891
-0.000159938
-0.000173859
-0.000213369
-0.000140566
-0.000158611
-0.000125272
-0.000181354
-0.000243451
-0.000226006
-0.000245812
-0.000133868
-0.000162181
-0.0001752
-0.000198942
-0.000221431
-0.000128332
-0.000131861
-0.000138546
-0.000152646
-0.000208775
-0.00018361
-0.000241928
-0.000210197
-0.000153129
-0.000110132
-0.00018271
-0.000147844
-0.000141647
-0.00020191
-0.000150174
-0.000104142
-0.000224786
-0.000145037
-0.000263197
-0.00021968
-0.000195263
-0.000218845
-0.000163844
-0.000232185
-0.000130144
-0.000183523
-0.000209286
-0.000202708
-0.000248819
-0.000229264
-0.000176496
-0.000213606
-0.000199549
-0.000258554
-0.000178468
-0.000159691
-0.000198805
-0.00018935
-0.0001474
-0.000255442
-0.000157139
-0.000212373
-0.000186858
-0.000193952
-0.00020797
-0.000147188
-0.000191398
-0.000165381
-0.000257685
-0.000192018
-0.000200036
-0.000248844
-0.000168794
-0.000186036
-0.000219923
-0.000152557
-0.000137716
-0.000195747
-0.000197286
-0.000191136
-0.000204789
-0.000232222
-0.000160272
-0.000206315
-0.000178808
-0.000178005
-0.000224687
-0.000180895
-0.000171331
-0.000125342
-0.00016194
-0.000155451
-0.000168583
-0.000186621
-0.000161224
-0.00017309
-0.000273393
-0.000210035
-0.000204486
-0.000196779
-0.000168594
-0.000213592
-0.000165401
-0.000199598
-0.000137591
-0.000245405
-0.000216178
-0.000242756
-0.000257836
-0.000266044
-0.00021365
-0.000166973
-0.000157586
-0.000208643
-0.000132121
-0.000218134
-0.00022188
-0.000171516
-0.000222325
-0.000174024
-0.000194887
-0.000205595
-0.00019614
-0.0001831
-0.000199489
-0.000181393
-0.00018616
-0.000180086
-0.00013562
-0.000130672
-0.000151414
-0.000210685
-0.000202518
-0.000222521
-0.000254869
-0.000183032
-8.9273e-05
-0.0002107
-0.00017333
-0.000246696
-0.000176635
-0.000234103
-0.000167
-0.000175733
-0.000204286
-0.000252893
-0.000215535
-0.00032244
-0.000216683
-0.000186353
-0.000181183
-0.000185234
-0.000145627
-0.0002017
-0.000203861
-0.000212264
-0.000148845
-0.000179242
-0.000148931
-0.000114532
-0.000159485
-0.000147919
-0.000249624
-0.000200697
-0.000190162
-0.00017671
-0.000151198
-0.000238021
-0.000166372
-0.000170489
-0.000195364
-0.000230129
-0.000168162
-0.000171403
-0.000157976
-0.000225579
-0.000222364
-0.000214119
-0.000180842
-0.000215786
-0.000223947
-0.000188312
-0.000165311
-0.000211801
-0.000205626
-0.000199183
-0.000169124
-0.000182089
-0.000211135
-0.000151521
-0.000161564
-0.000157311
-0.000154812
-0.000163823
-0.000143579
-0.000207355
-0.000162532
-0.000155809
-0.000142866
-0.000258513
-0.000190672
-0.000222622
-0.000228311
-0.00024597
-0.000175056
-0.000187192
-0.000157978
-0.000229483
-0.000150182
-0.000196013
-0.000171073
-0.000153184
-0.000132551
-0.000116425
-0.00014667
-0.000114056
-0.000204462
-0.000167529
-0.00020658
-0.000153648
-0.000204251
-0.000269573
-0.000223418
-0.00010556
-0.000173909
-0.000187022
-0.000183839
-0.000233656
-0.000238373
-0.000215723
-0.000213709
-0.000175696
-0.000175734
-0.000154633
-0.000105351
-0.000226773
-0.000201456
-0.000148832
-0.000183074
-0.000206892
-0.000219939
-0.000195992
-0.000141505
-0.000200831
-0.000201741
-0.00015707
-0.000192864
-0.000122402
-0.000160076
-0.000101439
-0.000177925
-0.000230826
-0.000172823
-0.000200553
-0.000216072
-0.000138938
-0.000152497
-0.000197281
-0.000193319
-0.000181715
-0.000238273
-0.000198558
-0.000147362
-0.000164924
-0.000223922
-0.00025412
-0.000190474
-0.000181301
-0.000211164
-0.000188547
-0.000150208
-0.000179245
-0.000142637
-0.000161974
-0.00020369
-0.000141503
-0.000210782
-0.000218549
-0.000225082
-0.000205969
-0.000173632
-0.00020502
-0.000203437
-0.000197499
-0.000142456
-0.000188406
-0.000167223
-0.000179009
-0.000245867
-0.000184976
-0.000132805
-0.000151722
-8.55291e-05
-0.000187213
-0.000157401
-0.000139632
-0.000223285
-0.000208577
-0.000128