# vtk DataFile Version 1.0
Net Charge Density
ASCII
DATASET STRUCTURED_POINTS
DIMENSIONS 256 128 1
ORIGIN 0 0 0
SPACING 0.15625 0.15625 1
POINT_DATA 32768
SCALARS rhonet float
LOOKUP_TABLE default
-0.000127969
-6.57246e-05
-6.94011e-05
-7.61858e-05
-0.00012733
-6.82293e-05
-0.000117703
-0.000118009
-7.45728e-05
-1.90415e-05
-9.74964e-05
-0.000109297
-4.27286e-05
-9.50116e-05
-7.4566e-05
-9.01779e-05
-3.98551e-05
-7.84278e-05
-1.36647e-05
-9.32528e-05
-9.06923e-05
-5.29089e-05
-0.000109528
-6.55935e-05
-9.44476e-05
-8.75971e-05
-0.000176587
-4.75852e-05
-8.68559e-05
-8.19477e-05
-9.65244e-05
-9.4246e-05
-5.85164e-05
-7.26866e-05
-0.000128919
-5.52547e-05
-7.44387e-05
-0.00010953
-7.56708e-05
-8.21049e-05
-0.000105229
-6.41565e-05
-8.32923e-05
-0.00012867
-9.85865e-05
-2.52466e-05
-3.54486e-05
-6.51214e-05
-5.34553e-05
-5.31649e-05
-1.80475e-05
-4.85389e-05
-2.92294e-05
-2.95561e-05
-4.73877e-05
-6.73008e-05
-0.000139701
-0.000115181
-8.20469e-05
-5.97121e-05
-5.65652e-05
-3.97046e-05
-4.44869e-05
-5.03581e-05
-3.87973e-05
-8.07031e-05
-3.44429e-05
-4.11081e-05
-4.44864e-05
-7.01071e-05
-6.80223e-05
-7.60231e-05
-7.19807e-05
-5.71238e-05
-9.78463e-05
-9.79972e-05
-8.0204e-05
-9.01603e-05
-0.000117029
-7.75003e-05
-0.000145137
-7.36768e-05
-4.44773e-05
-9.62021e-05
-9.10431e-05
-4.81717e-05
-0.00012359
-3.27192e-05
-6.60794e-06
-5.28552e-05
-9.70253e-05
-8.45506e-05
-3.95444e-05
-7.56238e-05
-0.000100313
-0.000111429
-3.42573e-05
-4.85155e-05
-0.00010803
-3.8998e-06
1.10792e-05
-9.59259e-05
-2.8306e-05
-4.26731e-05
-6.49393e-05
-7.36573e-05
-0.000106321
-6.51595e-05
-0.000113538
-6.4006e-05
-5.74744e-05
-9.47478e-05
-7.73692e-05
-7.1457e-05
-9.96719e-05
-6.55824e-05
-4.77766e-05
-6.30999e-05
-8.12789e-05
-6.26539e-05
-6.79149e-05
-6.45999e-05
-7.86605e-05
-4.75559e-05
-8.73604e-05
-6.84287e-05
-7.15511e-05
-5.6933e-05
-0.00010319
-5.97287e-05
-8.70087e-05
-7.95224e-05
-9.02873e-05
-6.58343e-05
-0.000113069
-5.63356e-05
-3.88593e-05
-7.20503e-05
-6.11796e-05
-3.76191e-05
-2.55229e-05
-8.34311e-05
-5.74586e-05
-8.86728e-05
-9.1203e-05
-8.18397e-05
-0.000139732
-7.6886e-05
-0.000108236
-9.72961e-05
-1.93172e-05
-4.68401e-05
-0.000107376
-1.68487e-05
-7.92689e-05
-0.000149638
-7.09518e-05
-2.02953e-05
-1.31041e-05
-3.40925e-05
-7.54654e-05
-8.62296e-05
-3.30484e-05
-9.39134e-05
-6.99637e-05
-0.000104557
-9.95056e-05
-0.000123111
-4.76963e-05
-7.57287e-05
-6.29385e-05
-0.000114789
-8.9434e-05
-6.28535e-05
-0.000101597
-7.45287e-05
-5.76122e-05
-6.18021e-05
-4.73565e-05
-7.19631e-05
-9.55182e-05
-4.22509e-05
1.50458e-06
-8.06808e-05
-7.62477e-05
-8.66268e-05
-3.54749e-05
-9.23174e-05
-8.4007e-05
-1.9154e-05
-7.29786e-05
-9.54852e-05
-7.3263e-05
-6.6138e-05
-0.000103291
-0.000168497
-0.00013873
-4.80535e-05
-5.13974e-05
-9.46143e-05
-8.1244e-05
-1.30892e-05
-6.98281e-05
-0.000120844
-0.00014247
-6.27777e-05
-8.41727e-05
-0.000210742
-9.56257e-05
-7.21138e-05
-0.000105402
-0.000113111
-8.27328e-05
-8.45593e-05
-0.000105386
-0.000119809
-0.000136701
-5.46257e-05
-5.91977e-05
-0.000118829
-0.000116801
-0.000122624
-0.000124426
-6.53835e-05
-9.61349e-05
-6.29634e-05
-8.94347e-05
-7.53616e-05
-3.79424e-05
-7.01495e-05
-7.73666e-05
-8.11998e-05
-0.000138364
-8.11939e-05
-4.41169e-05
-0.000104545
-5.70321e-05
-0.000101918
-6.73219e-05
-5.95843e-05
-6.84766e-05
-0.000102717
-9.71528e-05
-0.000101375
-5.7657e-05
-6.69474e-05
-8.63794e-05
-5.42442e-05
-6.7435e-05
-6.33497e-05
-0.000107547
-7.58317e-05
-0.000104703
-0.000123442
-2.4031e-05
-6.27223e-05
-5.01866e-05
-4.03329e-05
-1.36729e-05
-6.26724e-05
-1.58748e-05
-8.60898e-05
-7.11018e-05
-5.18592e-05
-2.54023e-05
-4.88638e-05
-4.01468e-05
-1.60384e-05
-6.95302e-05
-1.72599e-05
-3.9959e-05
-7.03362e-05
-0.000117442
-4.57694e-05
-5.96905e-05
-6.69937e-05
-6.32196e-05
-6.37546e-05
-3.9521e-05
-7.27325e-05
-6.53923e-05
-2.33081e-05
-5.7316e-05
8.40198e-07
-6.05609e-05
-5.04176e-05
-4.79318e-05
-1.83645e-05
-5.80487e-05
-4.79681e-05
-2.7054e-05
-5.659e-05
-2.80061e-05
-0.00011484
-4.22752e-05
-4.06601e-05
-3.55586e-05
-0.000105773
-4.86008e-05
-5.55594e-05
-3.83945e-05
-6.5219e-05
-1.88714e-05
-4.24467e-05
-5.4371e-05
-2.20236e-05
-4.30411e-05
-5.96454e-06
-8.51122e-05
-6.28356e-05
-6.63398e-05
-9.3871e-05
-4.50193e-05
-5.92491e-05
-5.21574e-05
-6.79307e-05
-4.29126e-05
-4.8382e-05
-7.50658e-06
-2.59397e-05
3.53467e-06
-5.47856e-05
-5.94871e-05
-2.75067e-05
-1.93784e-05
-8.26134e-05
-1.76019e-05
-3.71548e-05
-7.22919e-05
-3.68637e-05
-3.05619e-05
-6.39794e-05
-6.02935e-05
-0.000116824
-0.000121763
-1.50136e-05
-5.52587e-05
-4.4208e-05
-4.17543e-05
-2.45684e-05
-4.83399e-05
-6.95176e-05
-6.55694e-05
4.40246e-06
-8.30446e-05
-6.91665e-05
-4.02768e-05
-5.48172e-05
-4.20452e-05
-0.000107176
-6.89045e-05
-0.000100041
-3.7263e-05
-4.34936e-05
-8.16049e-05
-5.02607e-05
-4.02697e-05
-1.17054e-05
-2.02756e-05
2.46992e-06
-1.01078e-05
-2.81594e-05
-6.65519e-05
-3.01722e-05
-1.35833e-05
-6.27547e-05
-3.76805e-05
-8.77018e-05
-3.43714e-05
-3.97472e-05
-8.4662e-05
-5.58742e-05
-7.05722e-05
-8.61029e-06
-7.45074e-05
-4.27264e-05
-4.23307e-05
-3.60977e-05
-4.3108e-05
-6.06509e-05
-5.60662e-05
-7.9065e-05
-6.02045e-05
-4.88879e-05
-4.50103e-05
-1.43516e-05
-5.0632e-05
-4.80701e-05
-6.61095e-05
-0.000109205
-6.61449e-05
-6.25689e-05
-8.33501e-05
-1.95029e-05
-2.40432e-05
-6.87405e-05
-5.45785e-05
-7.67365e-05
-3.67357e-05
-2.63259e-05
-9.44934e-05
-6.02966e-05
-3.87587e-05
-0.000117108
-7.8602e-05
-2.47834e-05
-1.81331e-05
-4.43463e-05
-6.26174e-05
-6.91507e-05
-4.21771e-05
-5.02821e-05
-1.86469e-05
-5.05143e-05
-5.86323e-05
-3.50984e-05
-3.73047e-05
-5.49971e-05
-4.01443e-05
-6.21871e-05
-2.13664e-05
-5.59075e-05
-3.44813e-05
-4.54047e-05
-4.64543e-05
-5.93984e-05
-5.3448e-05
1.63858e-05
-6.93427e-05
-3.35544e-05
-4.02864e-05
-3.96662e-05
-5.01635e-05
-6.56411e-05
-5.15792e-05
-6.3603e-05
-4.01239e-05
-1.55561e-05
-3.29083e-05
-6.47769e-05
-9.89807e-05
-4.18067e-05
-4.33732e-05
-5.76557e-05
-4.25427e-05
-4.15602e-05
-4.7362e-05
-5.79408e-05
-5.24794e-05
-5.32861e-05
-7.90122e-05
-6.55317e-05
-4.09387e-05
-7.2437e-05
-4.50862e-05
-7.16959e-05
-5.95016e-05
-3.1528e-05
-9.71089e-05
-7.63261e-05
-4.04814e-05
-8.87432e-05
-4.83866e-05
-8.41498e-05
-3.79346e-05
-1.55065e-05
-0.000107676
-6.27654e-05
-4.48823e-05
-3.39178e-05
-8.71323e-05
-9.35477e-05
-6.33273e-05
-5.12797e-05
-7.379e-05
-7.84337e-05
-9.01116e-05
-2.79311e-06
-7.65691e-05
-6.78554e-05
-7.77059e-05
-6.22788e-05
-1.49435e-06
-2.89711e-05
-5.78033e-05
-6.06885e-05
-5.18281e-05
-7.61177e-05
-7.97216e-05
-5.88797e-05
-6.81899e-05
-3.52873e-05
-5.08107e-05
-5.0894e-05
-5.69497e-05
-3.73068e-05
-5.59737e-05
-8.46173e-05
-5.38154e-05
-6.76576e-05
-4.76641e-06
-4.00917e-05
-2.75459e-05
-9.09043e-05
-8.11213e-05
-7.22773e-05
-7.11131e-05
-9.4054e-05
-3.59312e-05
-3.97358e-05
-6.88175e-05
-5.51887e-05
-5.62793e-05
-3.08851e-05
-7.03778e-05
-7.68344e-05
-8.81264e-05
-9.28234e-05
-4.73211e-05
-2.80597e-05
-5.5661e-05
-7.12359e-05
-7.53116e-05
-4.34508e-05
-7.12884e-05
-6.46116e-05
-4.74329e-05
-3.3619e-05
-2.091e-05
-3.17064e-05
-8.08318e-05
-2.25907e-05
-7.15432e-05
-8.58561e-05
-6.4611e-05
-8.57204e-05
7.98199e-06
-6.51144e-05
-3.27731e-05
-5.95702e-05
-5.19035e-05
-6.35664e-05
-5.69165e-05
-6.02731e-05
-7.10535e-05
3.57733e-06
-4.13886e-05
-8.8009e-05
-3.6591e-05
-4.92801e-05
-8.6676e-05
-3.22488e-05
-5.36412e-05
-4.26229e-05
-5.68533e-05
-4.92225e-05
-4.51031e-05
-6.72778e-05
-6.85847e-05
-7.85741e-05
-7.07388e-05
-2.65707e-05
-4.82082e-05
-3.48664e-05
-6.70278e-05
-4.31984e-05
-5.92852e-05
-7.12283e-05
-8.17863e-05
-6.64661e-05
-9.26085e-05
-5.71901e-05
-3.68218e-05
-5.36716e-05
-8.47645e-05
-7.053e-05
-7.07966e-05
-6.47348e-05
-1.06276e-05
-7.70894e-05
-6.97668e-05
-4.31927e-05
-1.84271e-05
-4.19264e-05
-1.39089e-05
-5.93262e-05
-7.92049e-05
-1.94244e-05
-4.67679e-05
-6.64503e-05
-1.77701e-05
-3.3988e-05
-2.83415e-05
-4.44425e-05
-5.34098e-05
-5.43621e-05
-4.89704e-05
-5.47511e-05
-5.85408e-05
-1.2092e-05
-8.74866e-05
-2.17903e-05
-3.29185e-05
-3.38572e-05
-4.24188e-06
-7.54256e-05
-7.68707e-05
-2.84292e-05
-3.82298e-05
-4.39486e-05
-4.4708e-05
-6.78355e-05
-6.97325e-05
-6.65167e-05
-4.87293e-05
-6.14764e-05
-4.71261e-05
-5.80221e-05
-2.47613e-05
-1.61302e-05
-4.10329e-05
-2.67921e-05
-4.88512e-05
-5.24112e-05
-3.24718e-05
-4.41236e-05
-5.06832e-06
-5.264e-05
-4.94465e-05
-4.26612e-05
-3.58758e-05
-3.15265e-05
-6.67858e-05
-1.15328e-05
-5.36721e-05
-5.58503e-05
5.25116e-06
-3.83089e-05
-4.13944e-05
-9.20599e-05
-7.64209e-05
-4.48263e-05
-2.96196e-05
-6.08173e-05
-3.46942e-05
-7.43129e-05
-2.85334e-05
-7.01064e-05
-5.61756e-05
-5.12945e-05
-4.60293e-05
-4.99323e-05
-5.61119e-05
-2.44601e-05
-6.26578e-05
-5.89734e-05
-3.53077e-05
-9.23588e-06
-5.51889e-05
-5.41914e-05
-9.91848e-05
-2.91329e-05
-5.4406e-07
-6.24653e-05
-2.21011e-05
-7.03849e-05
-5.07924e-05
-5.50535e-05
-1.84952e-05
-6.37023e-05
-2.28208e-05
-3.37729e-05
-5.26928e-05
-3.42656e-05
-3.5661e-05
-4.45055e-05
-3.2936e-05
-5.17387e-05
-6.43852e-05
-5.62177e-05
-5.47422e-05
-2.30866e-05
-5.57892e-05
-6.35917e-05
-9.84319e-05
-3.45606e-05
-5.95577e-05
-6.29922e-05
-8.38765e-05
-5.65215e-05
-5.90523e-05
-3.16548e-05
-2.37766e-05
-4.95639e-05
-6.00288e-05
-1.38002e-05
-5.20758e-05
-5.83373e-05
-4.54378e-05
-3.79465e-05
-3.06845e-05
-7.22012e-05
-7.94114e-05
-1.20599e-05
-5.0603e-05
-4.45124e-05
-7.50531e-05
-0.000104102
-7.85792e-05
-4.42928e-05
-4.27146e-05
-4.6468e-05
-3.6243e-05
-5.12654e-05
-5.95974e-05
-7.0297e-05
-6.76196e-05
-7.89403e-05
-6.21401e-05
-4.14689e-05
-7.61012e-05
-7.9931e-05
-4.48113e-05
-6.38786e-05
-5.42083e-05
-5.10805e-05
-5.9205e-05
-7.38748e-05
-6.10073e-05
-6.66259e-05
-4.90491e-05
-4.48538e-05
-8.79171e-05
-1.88798e-05
-5.27722e-05
-5.22739e-05
-3.01975e-05
-6.61393e-05
-7.22578e-05
-5.3447e-05
-3.60919e-05
-4.84694e-05
-6.11856e-05
-8.2423e-05
-3.97356e-05
-6.60476e-05
-6.68829e-05
-4.52771e-05
-7.89954e-05
-2.81337e-05
-3.40717e-05
-5.84659e-05
-2.33562e-05
-5.9123e-05
-5.13623e-05
-5.57283e-05
-4.29935e-05
-4.54821e-05
-3.68483e-05
-5.30115e-05
-5.20781e-05
-4.88361e-05
-6.21534e-05
-5.74208e-05
-1.12267e-05
-3.89343e-05
-5.11763e-05
-5.50927e-05
-5.2632e-05
-7.82771e-05
-5.58597e-06
-6.9531e-05
-7.23167e-05
-3.97436e-05
-5.38183e-05
-6.13586e-05
-5.2837e-05
-5.06277e-05
-4.39952e-05
-3.17542e-05
-6.25447e-05
-5.13616e-05
-3.99193e-05
-5.47771e-05
-4.04233e-05
-5.56359e-05
-5.5785e-05
-4.16279e-05
-4.29581e-05
-4.85506e-05
-6.39919e-05
-4.40441e-05
-5.15525e-05
-2.29481e-05
-3.785e-05
-6.45587e-05
-1.2653e-05
-8.56509e-05
-6.54258e-05
-5.29456e-05
-5.4462e-05
-4.20661e-05
-5.29575e-05
-5.48968e-05
-4.72777e-05
-5.10256e-05
-3.06744e-05
-5.98989e-05
-7.02897e-05
-3.07547e-05
-4.09123e-05
-2.90481e-05
-4.78765e-05
-1.08655e-05
-8.39093e-05
-4.16524e-05
-3.50127e-05
-3.74072e-05
-6.76879e-05
-0.000107903
-7.46702e-05
-9.05053e-05
-5.03825e-05
-4.0117e-05
-2.97555e-05
-3.58357e-05
-3.09737e-05
-6.20669e-05
-4.8297e-05
-6.9459e-05
-5.88323e-05
-1.93543e-05
-4.65269e-05
-5.46868e-05
-6.6511e-05
-4.28298e-05
-8.23238e-05
-6.76668e-05
-4.06282e-05
-3.67296e-05
-6.35782e-05
-8.5647e-05
-4.36285e-05
-3.68596e-05
-1.30332e-05
-6.24337e-05
-4.51089e-05
-4.31718e-05
-3.25522e-05
-6.01908e-05
-5.78052e-05
-8.11759e-05
-1.53807e-05
-1.03405e-05
-7.3411e-05
-8.53249e-05
-7.03956e-05
-2.92992e-05
-1.22011e-05
-4.76673e-05
-8.14655e-05
-8.15981e-05
-7.118e-05
-5.31847e-05
-5.56703e-05
-7.51219e-05
-5.22782e-05
-8.49092e-05
2.82621e-06
-3.99767e-05
-7.10613e-05
-8.56596e-05
-9.12824e-05
-2.09876e-05
-3.28024e-05
-5.34443e-05
-4.41821e-05
-3.81985e-05
-4.67322e-05
-6.1764e-05
-4.61766e-05
-8.53908e-05
-4.11829e-06
-6.23047e-05
-4.16799e-05
-6.184e-05
-6.83564e-05
-8.27099e-05
-5.22051e-05
-3.8104e-05
-4.11619e-05
-6.29712e-05
-6.05773e-05
-9.00545e-05
-9.07563e-05
-4.56849e-05
-7.72867e-05
-4.89208e-05
-4.45315e-05
-1.73136e-05
-6.80871e-05
-5.54824e-05
-3.1362e-05
-3.56008e-05
-4.17015e-05
-4.93781e-05
-6.04268e-05
-5.51735e-05
-3.53617e-05
-6.92112e-05
-6.7619e-05
-2.52052e-05
-6.39798e-05
-3.03699e-05
-1.62519e-05
-1.85775e-05
9.27947e-07
-3.06505e-05
-4.82082e-05
-5.54981e-06
-9.51256e-05
1.14074e-05
-4.54132e-05
-3.27538e-05
-2.12967e-05
-2.25286e-05
-3.23955e-05
-5.99693e-05
-4.48511e-05
-6.53447e-05
-2.55308e-05
-3.97526e-05
-5.3472e-05
-2.74846e-05
-3.87434e-05
-7.44543e-06
-3.22101e-05
-9.68982e-05
-4.89789e-05
-6.12393e-05
-4.41102e-05
-4.21685e-05
-7.72485e-05
-1.24137e-05
-1.89612e-05
-5.3347e-05
-5.53985e-05
-6.21978e-05
-3.56169e-05
-2.84631e-05
-2.90769e-05
-5.46254e-05
-3.11716e-05
-2.30593e-05
-6.15266e-05
-3.78148e-05
-8.36305e-05
-4.4846e-05
-4.58692e-05
-6.07254e-05
-3.57733e-05
-8.4784e-05
-7.75734e-05
-4.35248e-05
-2.2254e-05
-3.92491e-05
-4.39681e-05
-5.01048e-05
-3.00269e-05
-5.47774e-05
-7.47719e-05
-3.06972e-05
-3.09235e-05
-6.42617e-05
-8.70194e-05
-6.71195e-05
-4.2815e-05
-7.34287e-05
-3.27109e-05
-3.86967e-05
-6.13964e-05
-4.74107e-05
-7.46409e-05
-4.16581e-05
-5.30536e-05
-3.61433e-05
-3.77846e-05
-6.84439e-05
-1.12011e-05
-1.88003e-05
-4.58917e-05
-9.88515e-05
-6.42405e-05
-7.76109e-05
-5.2594e-05
-7.65817e-05
-6.90647e-05
-3.35588e-05
-6.0415e-05
-6.55529e-05
-4.71408e-05
-3.06076e-05
-5.29681e-05
-4.11369e-05
-2.9524e-05
-2.2845e-05
-3.55686e-05
-8.15826e-05
-6.07783e-05
-6.89804e-05
-4.53727e-05
-2.34351e-05
-3.55123e-05
-3.73414e-05
-2.70874e-05
-6.32073e-05
-6.01072e-05
-5.51573e-05
-7.0869e-05
-5.5093e-05
-4.75872e-05
-8.55542e-05
-5.6733e-05
-5.70646e-05
-7.82613e-05
-3.42853e-05
-3.23747e-05
-6.29586e-05
-6.7431e-05
-7.93019e-05
-0.000107715
-0.000129637
-7.66587e-05
-5.97493e-05
-7.37544e-05
-4.49458e-05
-3.08002e-05
-1.52684e-05
-6.20851e-05
-7.69368e-05
-5.79659e-05
-2.91228e-05
-3.10101e-05
-1.45159e-05
-5.54024e-05
-4.01194e-05
-6.49425e-05
-0.00010916
-3.57001e-05
-4.42354e-05
-4.46604e-05
-2.98235e-05
-5.43725e-05
-6.05329e-05
-2.34366e-05
-6.87345e-05
-8.2167e-05
-9.43779e-05
-9.30547e-05
-7.44794e-05
-4.07785e-05
-5.20869e-05
-6.1998e-05
-4.58438e-05
-4.84128e-05
-9.09725e-05
-2.387e-05
-5.10759e-05
-6.95298e-05
-4.5489e-05
-5.8794e-05
-8.52811e-05
-5.58265e-05
-1.97915e-05
-3.56601e-05
-3.53616e-05
-3.13624e-05
-8.78417e-05
-5.07115e-05
-5.93994e-06
-6.03437e-05
-7.23371e-05
-4.45746e-05
-3.31181e-05
-1.59023e-05
5.56604e-06
-5.66399e-05
-5.28264e-05
-4.93077e-05
-4.88176e-05
-6.27134e-05
-4.66736e-05
-5.13232e-05
-6.1717e-05
-4.14927e-05
-3.42708e-05
-9.35725e-05
-6.11963e-05
-2.75738e-06
-3.07423e-05
2.18211e-06
-4.12913e-05
-3.24385e-05
-3.36835e-05
1.19561e-05
-4.61384e-05
-5.36967e-05
-4.93883e-05
-7.56746e-05
-4.1181e-05
-4.7971e-05
-2.91352e-05
-4.45321e-05
-4.87219e-05
-7.77213e-05
-4.49708e-05
-5.36224e-05
-6.57703e-05
-6.21338e-05
-8.35892e-05
-6.48566e-05
-4.92402e-05
-0.000102715
-0.000100312
-3.22538e-05
-4.03579e-05
-2.16715e-05
-6.11518e-05
-2.66779e-05
-6.61921e-06
-7.18132e-05
-5.36029e-05
-3.47869e-05
-6.6749e-05
-3.6476e-05
-7.7164e-05
-2.67816e-06
-2.58317e-05
-5.0695e-05
-4.4734e-05
-4.28821e-05
-5.52227e-05
-6.11413e-05
-9.80868e-05
-3.26731e-05
-8.00562e-06
-3.10617e-05
3.0965e-06
-2.1575e-05
-6.35606e-05
-4.20036e-05
-6.39351e-05
-7.59729e-05
-3.91458e-05
-7.78796e-05
-8.55678e-05
-6.25743e-05
-9.87789e-05
-8.5379e-05
-4.77755e-05
-4.972e-05
-6.49848e-05
-5.26103e-05
-9.50245e-05
-3.20632e-05
-6.95105e-05
-5.99031e-05
-8.26263e-05
-2.48779e-05
-8.19067e-05
-4.95914e-05
-4.34956e-05
-5.4836e-05
-5.09398e-05
-2.36065e-05
-2.33427e-05
-2.34581e-05
-5.4074e-05
-8.99129e-05
-4.93473e-05
-8.92191e-05
-3.18292e-05
-6.36122e-05
-3.57468e-05
-5.17056e-05
5.0641e-06
-6.18987e-05
-2.04284e-05
-3.56753e-05
-3.03046e-05
-4.99214e-05
-2.22369e-05
-4.40921e-05
-5.92651e-05
-4.32378e-05
-1.72865e-05
-4.97416e-05
-4.62677e-05
-9.01319e-05
-4.84326e-05
-5.63259e-05
-3.33596e-05
-4.3718e-05
-2.30584e-05
-7.64901e-05
-3.05855e-05
-5.22687e-05
-2.70693e-05
-4.80832e-05
-4.3743e-05
-3.72529e-05
-5.52305e-05
-8.3757e-05
-6.82212e-05
-6.75761e-05
-9.33468e-05
-5.92257e-05
-8.14956e-05
-5.03978e-05
-6.18719e-05
-4.14017e-05
-4.77291e-05
-7.17831e-05
-6.1389e-05
-3.32274e-05
-3.67485e-05
-6.47627e-05
-0.000101157
-6.07159e-05
-4.38272e-05
-4.8168e-05
-3.12447e-05
-5.15789e-05
-4.3342e-05
-3.65678e-05
-4.83884e-05
-5.13418e-05
-6.7656e-05
9.94405e-08
-4.49428e-05
-7.31944e-05
-6.8064e-05
-9.53844e-06
-4.53024e-06
-6.02258e-05
-0.000101915
-6.31456e-05
-8.30249e-05
-6.73843e-05
-5.3209e-05
-4.43333e-05
-6.43601e-05
-3.58072e-05
-6.27086e-05
-6.95731e-05
-6.11553e-05
-2.4992e-05
-7.39138e-05
-6.37625e-05
-2.86016e-05
-1.84324e-05
-8.29582e-05
-7.29689e-05
-5.47561e-05
-1.71483e-05
-6.08283e-05
-6.37324e-05
-4.45705e-05
-6.55854e-05
-3.39587e-05
-4.48883e-05
-6.03195e-05
-1.6504e-05
-6.27422e-05
-6.1106e-05
-4.87609e-05
-7.62763e-06
-8.9645e-05
-5.59426e-05
-5.20805e-05
-9.51551e-05
-3.00322e-05
-2.83566e-05
-3.44419e-05
-7.37304e-05
-8.3184e-05
-5.75376e-05
-3.9393e-05
-6.92515e-05
-6.43511e-06
-4.28198e-05
-4.25534e-05
-4.5115e-05
-6.57188e-05
-5.59561e-05
-7.34885e-05
-5.73775e-05
-5.99947e-05
-5.03568e-05
-2.61581e-05
-4.75947e-05
-4.95361e-05
-5.42113e-05
-5.69719e-05
-6.08043e-05
-3.38281e-05
-6.12296e-05
-5.54939e-05
-4.36612e-05
-8.58615e-05
-7.05132e-05
-3.77495e-05
-4.88239e-05
-6.7805e-05
-3.88064e-05
-8.33364e-05
-3.3363e-05
-4.69036e-05
-5.56192e-05
-8.47086e-05
-8.3349e-05
-3.4198e-05
-7.59884e-05
-6.09026e-05
-6.83626e-05
-5.72237e-05
-5.16155e-05
-3.4994e-05
-4.99498e-05
-1.06321e-05
-5.54603e-05
-8.35312e-05
-8.77016e-05
-3.91293e-05
-6.64173e-05
-6.25561e-05
-0.0001043
-5.99983e-05
-2.99235e-05
-3.89314e-05
-6.80556e-05
-6.22053e-05
-5.56273e-05
-7.5511e-05
-2.05344e-05
-3.51392e-05
-8.21664e-05
-3.43349e-05
-4.02576e-05
-5.01417e-05
-3.42271e-05
-5.25649e-05
-1.62762e-05
-5.87577e-05
-2.38558e-05
-6.25441e-05
-8.5536e-05
-7.68938e-06
-5.84014e-05
-3.88125e-05
-1.87435e-05
-2.36289e-05
-4.16454e-05
-1.28739e-06
-4.20576e-05
-3.58631e-05
-6.71065e-05
-7.89442e-05
-2.21264e-05
-6.13229e-05
-5.80289e-05
-2.07068e-05
-7.4427e-05
-9.29253e-05
-3.07973e-05
-3.12732e-05
-4.99943e-05
-4.15908e-05
-6.57128e-05
-4.7471e-05
-3.94805e-05
-3.072e-05
-5.45471e-06
-2.96589e-05
-2.51123e-05
-2.23832e-05
-4.49337e-05
-5.76047e-05
-2.55324e-05
-5.69383e-05
-5.57054e-05
-4.15658e-05
-3.75069e-05
-2.91473e-05
-2.91238e-06
-3.59325e-05
-2.56088e-05
-4.00783e-05
-6.6859e-05
-5.95386e-05
-4.83704e-05
-3.75537e-05
-5.29221e-06
-1.96252e-05
-4.3904e-05
-6.011e-05
-5.83653e-05
-9.29052e-05
-6.84717e-05
-3.9098e-05
-2.48636e-05
-8.59506e-05
-5.21932e-05
-7.82331e-05
-9.1844e-05
-6.07821e-05
-1.41685e-06
-3.90469e-05
-6.11736e-06
-1.89916e-05
-4.89037e-05
-5.9265e-05
-5.65819e-05
-4.11212e-05
-3.25484e-05
-4.39228e-05
-1.31149e-05
-7.89622e-05
-1.40213e-05
-4.57849e-05
-3.00281e-05
-2.25952e-05
-2.46441e-05
-5.01971e-05
-6.13987e-05
-4.15195e-05
-4.82341e-05
-6.6834e-05
-4.64661e-05
-4.1551e-05
-5.03786e-05
-5.47005e-05
-9.91829e-07
-4.31469e-05
-7.79357e-05
-4.80433e-05
-3.98395e-05
-4.95289e-05
-4.46015e-05
-7.34906e-05
-5.04984e-05
-3.76326e-05
-6.36055e-05
-5.48322e-05
-8.28258e-05
-7.70887e-05
-6.368e-05
-6.42322e-05
-2.04847e-05
-5.14608e-05
-8.37274e-05
-4.51881e-05
1.1276e-05
-3.33166e-05
-5.32442e-05
-5.60188e-05
-7.31502e-05
-5.3919e-05
-2.33575e-05
-3.17357e-05
-3.80866e-05
-3.50069e-05
-4.6218e-05
-3.9271e-05
-7.67174e-05
-4.51699e-06
-8.27187e-05
-7.03945e-05
-5.36055e-05
-2.21124e-05
-7.11539e-05
-2.62264e-05
-8.51536e-05
-6.89422e-05
-8.37699e-05
-6.53614e-05
-6.97672e-05
-5.89206e-05
-4.01033e-05
-3.33658e-05
1.61125e-06
-3.60168e-05
-2.39531e-05
-6.90394e-05
-2.9274e-05
-3.0359e-05
-6.93052e-05
-5.41418e-05
-4.89405e-05
-2.16754e-05
-5.33417e-05
-4.69413e-05
-7.83769e-05
-5.54908e-05
-5.91042e-05
-4.26052e-05
-2.65228e-05
-5.02347e-05
-2.35322e-05
-3.26171e-05
-8.01533e-05
-2.6055e-05
-8.02327e-05
-6.104e-05
-3.35349e-05
-5.63869e-05
-2.0485e-05
-7.19967e-05
-1.98246e-06
-5.87405e-05
-6.75722e-05
-3.23902e-05
-2.57513e-05
-6.54891e-05
-5.59578e-05
-3.55852e-05
-3.87584e-05
-7.85548e-05
-6.96617e-05
-4.00329e-05
-4.56874e-05
-8.66545e-05
-7.75957e-05
-5.18402e-05
-6.197e-05
-3.37608e-05
-3.94148e-05
-2.28735e-05
-3.74773e-05
-4.14865e-05
-7.25989e-05
-5.02473e-05
-7.27503e-05
-5.88528e-05
-5.05724e-05
-3.7462e-05
-4.90998e-05
-8.09086e-05
-1.33219e-05
-6.27429e-05
-4.53856e-05
-6.34269e-05
-3.43307e-05
-2.31345e-05
-6.05599e-05
-4.40102e-05
-3.31994e-05
-6.97859e-05
-5.8145e-05
-5.05042e-05
-3.28541e-05
-6.13159e-05
-4.59188e-05
-4.04938e-05
-5.02125e-05
-0.000103297
-6.09748e-05
-6.78128e-05
-0.000102678
-7.46794e-05
-6.71647e-05
-5.89077e-05
-6.17639e-05
-2.7393e-05
-5.61479e-05
-6.57978e-05
-2.97946e-05
-4.90469e-06
-5.14749e-05
-7.10535e-05
-6.53543e-05
-2.21565e-05
-9.15318e-05
-6.25185e-05
-6.12697e-05
-6.25732e-05
-6.93918e-05
-4.45276e-05
-0.000106315
-1.0084e-05
-3.90532e-05
-4.54936e-05
4.62643e-06
-4.90414e-05
-4.21048e-05
-2.22932e-05
-4.09598e-05
-4.30099e-05
-3.25012e-05
-5.81759e-05
-1.74367e-05
-4.05954e-05
-5.45614e-05
-4.86917e-05
-7.19561e-05
-1.2212e-05
-8.717e-05
-5.57097e-05
-6.03877e-05
-7.77695e-05
-8.56835e-05
-5.40559e-05
-2.52784e-05
-4.19009e-05
-1.49258e-05
-2.77233e-05
-4.00353e-05
-3.4305e-05
-1.42405e-05
-5.22166e-05
-8.6582e-05
-5.75837e-06
-4.20193e-05
-3.93182e-05
-4.70677e-05
-8.03407e-05
-5.02832e-05
-4.52933e-05
-5.2882e-05
-7.93377e-05
-6.61966e-05
-5.22195e-05
-6.03361e-05
-4.97478e-05
-8.54189e-05
-4.90326e-05
-2.73211e-05
-5.71495e-05
-3.14192e-05
-8.48157e-05
-5.25475e-05
-2.69105e-05
-8.01776e-05
-6.51542e-05
-6.69019e-05
-7.85586e-05
-6.08985e-05
-5.53548e-05
-2.30623e-05
-2.56534e-05
-9.09239e-06
-3.8535e-05
-6.60888e-05
-2.0304e-05
-4.40999e-05
-5.24587e-05
-2.47452e-05
-8.15457e-05
-4.09049e-05
-3.34075e-05
-7.03384e-05
-2.63522e-05
-3.96527e-05
-1.76021e-05
-2.37684e-05
-5.37285e-05
-5.09986e-05
-5.90586e-05
-6.18795e-05
-7.09006e-05
-5.85098e-05
-8.79226e-05
-2.77654e-05
-4.7003e-05
-7.72313e-05
-5.43778e-05
-5.70281e-05
-2.17743e-05
-3.85489e-05
-5.88199e-05
-1.03677e-05
-1.26798e-05
5.57741e-06
-1.73705e-05
-6.59124e-05
-6.79964e-05
-6.45043e-05
-1.79657e-05
-6.52227e-05
-5.14165e-05
-6.7932e-05
-3.79858e-05
-5.77587e-05
-6.77191e-05
-1.88101e-05
-5.36008e-05
-4.07785e-05
-8.37434e-05
-6.92956e-05
-5.49103e-05
-1.4498e-05
-3.75371e-05
-2.93299e-05
-3.36408e-05
-6.74416e-05
-5.42506e-05
-9.78738e-06
-8.44142e-05
-6.58394e-05
-5.23267e-05
-7.2749e-05
-2.39399e-05
-7.0873e-05
-1.7843e-05
-3.97355e-05
-2.95023e-05
-4.58492e-05
-7.94405e-05
-5.34534e-05
-5.91528e-05
-5.05454e-05
-4.71345e-05
-5.38091e-05
-4.00914e-05
-9.18452e-05
-4.68818e-05
-3.73787e-05
-4.37233e-05
-4.20339e-05
-7.90567e-05
-4.90081e-05
-7.37927e-05
-4.77949e-05
-3.91928e-05
-6.70669e-05
-6.83838e-05
-6.7487e-05
-5.76196e-05
-3.17771e-05
-5.43573e-05
-1.47821e-05
-1.81472e-05
-8.76803e-05
-4.28896e-05
-3.19079e-05
-2.79777e-06
-5.79007e-05
-1.5094e-05
-4.42452e-05
-6.92281e-05
-2.45157e-05
-2.31984e-05
-0.000103687
-8.00302e-05
-5.85803e-05
-2.53221e-05
-1.61313e-05
-3.42189e-05
-5.0925e-05
-5.94098e-05
-3.43729e-05
-3.38257e-05
-6.228e-05
-5.14364e-05
-7.17281e-05
-6.72202e-05
-2.94919e-05
-4.89347e-05
-4.50472e-05
-0.000105216
-2.74052e-05
-4.05709e-05
-3.12084e-05
-6.11686e-05
-2.95088e-05
-8.4031e-05
-2.1907e-05
-2.42553e-05
-2.61789e-05
1.95506e-05
-1.3001e-05
-2.8745e-05
-1.02076e-05
-4.14081e-05
-3.07757e-05
-5.25024e-05
-7.39787e-05
-6.64094e-05
-5.66668e-06
-4.75641e-05
-6.98855e-05
-4.27749e-05
-3.26948e-05
-7.14119e-05
-8.61496e-05
-3.4764e-05
-8.12866e-05
-3.65394e-05
-1.49539e-05
-5.48569e-05
-8.57791e-05
-8.13126e-05
-6.16254e-05
-2.31627e-05
-6.94558e-05
-8.25286e-05
-4.57371e-05
-3.92317e-05
-3.93233e-05
-5.64367e-05
-5.19986e-05
-4.3293e-05
-2.99429e-05
-5.90888e-05
-8.31206e-05
-4.14236e-05
-7.00508e-05
-4.43572e-05
-5.8516e-05
-6.57533e-05
-8.50887e-05
-9.51958e-05
-4.22397e-05
-4.44563e-05
-5.30483e-05
-7.46015e-05
-3.03366e-05
-1.23839e-05
-3.61736e-05
-3.39636e-05
-3.75567e-05
-1.57323e-05
-1.29806e-05
-4.01596e-05
-5.35263e-05
-3.78282e-05
-7.57794e-05
-4.9932e-05
-6.12693e-05
-6.73873e-05
-6.71611e-05
-3.77167e-05
-4.58866e-05
-3.15844e-05
-5.17897e-05
-5.49992e-05
-9.2171e-05
-6.99065e-05
-6.14236e-05
-6.97457e-05
-8.00806e-05
-4.28185e-05
-5.57875e-05
-4.5988e-05
-3.96586e-05
-2.58659e-05
-5.74084e-05
-4.62383e-05
-0.000102785
-5.94715e-05
-5.9294e-05
-4.93458e-05
-7.47471e-05
-5.12088e-05
-4.6972e-05
-5.91794e-05
-5.29451e-05
-2.78539e-05
-5.39999e-05
-7.59474e-05
-4.22809e-05
-6.0279e-05
-6.83141e-05
2.69982e-06
-1.49496e-05
-2.69899e-05
-5.14585e-05
-3.41887e-05
-2.11503e-05
-5.37465e-05
-7.25569e-05
-6.33972e-05
-7.37446e-05
-3.48184e-05
-5.65123e-05
-5.02247e-05
-5.30382e-05
-6.38912e-05
-1.86986e-05
-6.98684e-05
-8.43836e-05
-6.83726e-05
-4.96622e-05
-4.98389e-05
-5.97453e-05
-6.3093e-05
-4.93484e-05
-5.53078e-05
-3.5137e-05
-7.30067e-05
-5.8253e-05
-7.578e-05
-6.79993e-05
-3.08785e-05
-3.41397e-05
-1.75809e-05
-5.26906e-05
-3.19468e-05
-4.47831e-05
-3.13206e-05
-1.05527e-06
-3.95825e-05
1.70635e-05
-6.14877e-05
-7.08049e-06
-4.9376e-05
-6.32156e-05
-5.70002e-05
-4.48404e-05
-7.83185e-05
-5.33789e-05
-5.38922e-05
-6.21126e-05
-3.63341e-05
-5.71948e-05
-3.48869e-05
-8.23811e-05
-5.72388e-05
-1.54411e-05
-3.16879e-05
-7.23377e-05
-6.52162e-05
-3.19304e-05
-8.22481e-05
-5.14478e-05
-3.22768e-05
-5.04046e-05
-5.13709e-05
-3.57089e-05
-3.14703e-05
-2.77015e-05
-5.84623e-05
-3.52957e-05
-4.4086e-05
-4.84085e-05
-2.30856e-05
-6.76009e-05
-4.62829e-06
-2.60465e-05
-6.56447e-05
-3.82374e-05
-8.74031e-06
-2.90889e-05
-4.40475e-05
-7.09407e-05
-6.05582e-05
-1.01845e-05
-2.77655e-05
-4.23189e-05
-2.92768e-05
-4.69721e-05
-4.68851e-06
-5.30111e-05
-7.09968e-05
-4.35818e-05
-1.75435e-05
-6.79972e-05
-1.08556e-05
-3.61965e-05
-4.62193e-05
-5.82177e-05
-4.12608e-05
-6.77392e-05
-3.21678e-05
-7.11965e-05
-9.26287e-06
-6.37969e-05
-5.73173e-05
-6.85717e-05
-8.03543e-05
-8.56826e-05
-5.73714e-05
-4.25826e-05
-4.77908e-05
-7.67201e-05
-7.12271e-05
-8.21254e-05
-5.99532e-05
-5.11189e-05
-7.19245e-05
-3.75697e-05
-5.39865e-05
-5.61715e-05
-8.88677e-05
-8.84263e-05
-3.22208e-05
-6.51384e-05
-7.74929e-05
-5.16246e-05
-8.42177e-05
-3.98916e-05
-4.78644e-05
-1.18426e-05
-5.16476e-05
-2.38576e-05
-9.25074e-05
-3.70674e-05
-3.25715e-05
-2.73449e-05
-3.24083e-05
-4.79712e-05
-4.22983e-05
-5.60975e-05
-1.44769e-05
-7.92318e-05
-7.21679e-05
-1.49139e-05
-3.07333e-05
-4.18769e-05
-4.16179e-05
-5.93659e-05
-6.45401e-05
-4.72397e-05
-7.58378e-05
-2.26143e-05
-1.01479e-05
-4.67652e-05
-8.29521e-05
-6.4163e-05
-1.59158e-05
-3.74537e-05
-5.24641e-05
-5.97341e-05
-7.64585e-05
-2.89087e-05
-1.47425e-05
-3.59294e-05
-3.87214e-05
-5.32794e-05
-7.00545e-05
-6.91401e-05
-4.21732e-05
-6.36804e-05
-2.97728e-05
-5.79538e-05
-3.79113e-05
-4.88324e-05
-1.78372e-05
-7.95169e-05
-4.28126e-05
-5.47144e-05
-5.68634e-05
-6.99461e-05
-7.17512e-05
-5.21942e-05
-6.70835e-05
-4.39862e-05
-5.65579e-05
-3.68539e-05
-4.36425e-05
-4.47111e-05
-2.18951e-05
3.15792e-06
-2.19505e-05
-1.72325e-05
-4.95222e-05
-7.96564e-05
-5.18165e-05
-5.29967e-05
-4.00805e-05
-9.80044e-05
-4.24581e-05
-4.39764e-05
-7.45613e-05
-6.71349e-05
-4.55484e-05
-3.74739e-05
-5.79651e-05
-4.4959e-05
-4.79445e-05
-4.55547e-05
-5.25194e-05
-8.178e-05
-6.37858e-05
-5.22982e-05
-7.07926e-05
-3.25718e-05
-2.16718e-05
-2.87618e-05
-3.33116e-05
-4.13177e-05
-5.67639e-05
-5.65941e-05
-5.68294e-06
-5.107e-05
-4.83191e-05
-6.84376e-05
-7.80829e-05
-4.07812e-05
-2.31023e-05
-4.57038e-05
-4.24339e-05
-9.3678e-05
-5.39919e-05
-6.10957e-05
-2.41555e-05
-2.54694e-05
-6.39987e-05
-3.89764e-05
-3.91435e-05
-9.46147e-05
-5.22589e-05
-8.60176e-05
-4.13759e-05
-2.96786e-05
-7.24758e-05
-5.3104e-05
-2.14053e-05
-3.33173e-05
-4.40187e-05
-7.04497e-06
-4.67372e-05
-4.43752e-05
-5.18475e-05
-3.68291e-05
-5.36891e-05
-6.03325e-05
-4.34744e-05
-2.4432e-05
-5.38029e-05
-5.14606e-05
-3.3024e-05
-4.08477e-05
-3.9252e-05
-5.11123e-05
-5.1593e-05
-7.4534e-05
-5.01711e-05
-2.12959e-05
-7.72299e-05
-4.28472e-05
-1.12174e-05
-7.23157e-05
-4.41672e-05
-5.59088e-05
-4.55524e-05
-4.54981e-05
-3.56225e-05
-3.40328e-05
-1.89235e-05
-4.36113e-05
-7.7758e-05
-3.97208e-05
-5.47951e-05
-8.50149e-05
-7.35839e-05
-3.67649e-05
-4.77018e-05
-7.1273e-05
-2.57786e-05
-6.30532e-05
-7.3929e-05
-6.00654e-05
-9.49355e-05
-2.88567e-05
-3.33252e-05
-5.80147e-05
-4.11497e-05
-3.70025e-05
-7.11044e-05
-7.58789e-05
-3.70966e-05
-2.13883e-05
-3.79519e-05
-1.95681e-05
-5.88645e-05
-4.85012e-05
-5.70853e-05
-3.96561e-05
-2.78036e-05
-5.52298e-05
-3.27632e-05
-4.17981e-05
-5.78091e-05
-4.73948e-05
-9.17424e-05
-5.4544e-05
-4.77111e-05
-9.6411e-05
-6.98143e-05
-3.85431e-05
-9.49605e-05
-6.18108e-05
-5.26749e-05
-2.87044e-05
-0.000100527
-0.00010191
-6.94955e-05
-6.97148e-05
-5.71982e-05
-6.0635e-05
-6.2252e-05
-4.25618e-05
-4.68989e-05
-5.88755e-06
-4.05257e-05
-4.40354e-05
-1.50382e-05
-3.77838e-05
-7.08752e-05
-5.33913e-05
-5.231e-05
-6.84081e-05
-6.6979e-05
-1.07493e-05
-3.45596e-05
-3.12796e-05
-5.712e-05
-1.69784e-05
-2.00293e-05
-3.16202e-05
-5.04414e-05
-2.35933e-05
-4.45152e-05
-3.56035e-05
-2.31462e-05
-5.52164e-05
-5.97749e-05
-7.16043e-05
-3.02175e-05
-4.90934e-05
-1.30471e-05
-4.67303e-05
-7.21734e-05
-7.2236e-05
-4.44679e-05
-3.81345e-05
1.85097e-05
-7.75154e-05
-5.35856e-05
-5.15283e-05
-4.32736e-05
-6.80235e-05
-5.4996e-05
-7.62652e-05
-8.54077e-05
-5.6731e-05
-6.84617e-06
-4.83434e-06
-7.56652e-05
-9.96731e-05
-5.21314e-05
-5.67301e-05
-6.6326e-05
-4.31109e-05
-4.31223e-05
-2.51335e-05
-2.09085e-05
-2.46855e-05
-4.94542e-05
-5.78303e-05
-7.23662e-05
-6.47448e-05
-2.31442e-05
-6.01111e-05
-6.66423e-05
-5.76389e-05
-7.69375e-05
-6.79716e-05
-1.24019e-05
-5.63898e-05
-6.72189e-05
-9.43094e-05
-3.24683e-05
-9.18848e-05
-4.12857e-05
-8.95202e-05
-5.70174e-05
-5.49906e-05
-5.89972e-05
-5.50574e-05
-3.52952e-05
-4.55124e-05
-3.94268e-05
-3.01024e-05
-7.00907e-05
-4.89396e-05
-4.16079e-05
-6.32333e-05
-6.86253e-05
-6.75675e-05
-4.22515e-05
-5.22403e-05
-5.23344e-05
-5.19076e-05
-6.32713e-05
-6.29721e-05
-3.70334e-05
-2.03793e-05
-6.08009e-05
-6.05608e-05
-1.24536e-05
-4.11009e-05
-3.72061e-05
-7.45694e-05
-1.8021e-05
-2.78542e-05
-2.67282e-05
-1.73586e-05
-4.67867e-05
-9.10301e-05
-7.78001e-05
-3.08476e-05
-3.48714e-05
4.67614e-06