# vtk DataFile Version 1.0
Net Charge Density
ASCII
DATASET STRUCTURED_POINTS
DIMENSIONS 256 128 1
ORIGIN 0 0 0
SPACING 0.15625 0.15625 1
POINT_DATA 32768
SCALARS rhonet float
LOOKUP_TABLE default
-0.000124404
-0.000107559
-6.30386e-05
-7.05814e-05
-7.12768e-05
-7.32944e-05
-0.000161508
-0.000120921
-9.63025e-05
-0.000112753
-0.000122
-2.24123e-05
-8.10016e-05
-8.27493e-05
-0.000121056
-9.84151e-05
-7.38841e-05
-4.69746e-05
-4.96181e-05
-0.000109571
-6.76817e-05
-4.69997e-05
-5.51846e-05
-9.96314e-05
-0.000116538
-9.99873e-05
-0.000180272
-0.000132479
-6.60867e-05
-6.81555e-05
-9.67476e-05
-0.000133188
-4.52705e-05
-3.81831e-05
-6.21765e-05
-0.000123298
-7.84602e-05
-2.07358e-05
-4.86908e-05
-3.19974e-05
-6.93996e-05
-0.000116142
-8.44282e-05
-9.07865e-05
-8.89133e-05
-8.6442e-05
-5.20275e-05
-6.14184e-05
-7.16102e-05
-0.000121568
-2.83043e-05
-3.26749e-05
-6.00713e-05
-5.3225e-05
-6.93975e-05
-6.42372e-05
-0.000105146
-7.51592e-05
-8.0481e-05
-7.20394e-05
-8.99639e-05
-5.82021e-05
-5.17797e-05
-8.62723e-05
-7.0376e-05
-5.0547e-05
-8.42202e-05
-3.50086e-05
-7.37966e-05
-7.04197e-05
-0.000109299
-8.50436e-05
-6.4476e-05
-6.5205e-05
-4.0589e-05
-6.41884e-05
-7.79955e-05
-9.11362e-05
-8.29585e-05
-4.60673e-05
-0.000115998
-8.10937e-05
-5.84425e-05
-8.60107e-05
-8.078e-05
-8.11107e-05
-8.03866e-05
-5.04273e-05
-6.27781e-05
-5.81642e-05
-5.3756e-05
-6.30045e-05
-6.02281e-05
-2.95118e-05
-9.92242e-05
-8.2857e-05
-6.25323e-05
-4.53009e-05
-0.000110988
-1.91872e-05
-1.64138e-05
-6.08219e-05
-5.18319e-05
-9.70459e-05
-7.11853e-05
-8.21744e-05
-7.32025e-05
-8.31264e-05
-9.30541e-05
-8.05392e-05
-7.5458e-05
-6.42231e-05
-5.81987e-05
-5.87151e-05
-0.000108845
-6.74543e-05
-7.05612e-05
-3.12672e-05
-5.73267e-05
-6.68381e-05
-6.53371e-05
-0.000120859
-8.74156e-05
-7.02197e-05
-6.24908e-05
-7.71419e-05
-1.99504e-05
-5.57714e-05
-0.000113298
-3.82494e-05
-9.28647e-05
-9.57018e-05
-6.77324e-05
-0.000104454
-6.54602e-05
-8.61547e-05
-4.95671e-05
-8.17921e-05
-0.000119885
-7.16763e-05
-6.6956e-05
-0.000133769
-3.15006e-05
-8.64504e-05
-8.40402e-05
-9.8523e-05
-9.88724e-05
-8.64864e-05
-7.411e-05
-7.65187e-05
-7.08205e-05
-6.12134e-05
1.92492e-06
-3.54371e-05
-0.000124682
-0.000114537
-6.35959e-05
-2.8819e-05
-5.5821e-05
-6.63772e-05
-5.444e-05
-6.75349e-05
-2.10616e-06
-8.0413e-05
-5.07816e-05
-9.16847e-05
-5.37548e-05
-6.23574e-05
-6.99637e-05
-5.16131e-05
-7.64135e-05
-5.08106e-05
-8.06898e-05
-5.64856e-05
-0.00010283
-0.000110602
-5.67823e-05
-0.000123861
-9.67872e-05
-5.95877e-05
-8.15718e-05
-1.14896e-05
-8.9126e-05
-0.000103001
-9.40922e-05
-3.98975e-05
-4.20048e-05
-9.04806e-05
-9.63714e-05
-1.42615e-05
-6.54062e-05
-5.0185e-05
-5.94885e-05
-5.07348e-05
-0.000120908
-6.9832e-05
-5.93886e-05
-8.04661e-05
-5.76991e-05
-9.25571e-05
-5.11742e-05
-3.87125e-05
-4.24215e-05
-5.55863e-05
-8.231e-05
-3.60522e-05
-5.29153e-05
-0.000124382
-6.12133e-05
-8.51247e-05
-0.000107612
-0.000114483
-8.40583e-05
-6.07959e-05
-7.38924e-05
-9.62807e-05
-0.000130281
-5.95892e-05
-0.000115698
-0.000108856
-0.000109373
-6.71625e-05
-6.3055e-05
-5.91834e-05
-7.19784e-05
-0.000110298
-8.30385e-05
-0.000110474
-8.35322e-05
-9.79638e-05
-9.86058e-05
-0.000107971
-0.000107331
-4.15478e-05
-6.66604e-05
-9.66701e-05
-0.000105031
-8.1324e-05
-3.31236e-05
-4.73938e-05
-6.042e-05
-7.90567e-05
-0.000108662
-0.000128667
-5.31209e-05
-0.000112374
-0.000106223
-6.83849e-05
-5.66375e-05
-7.48783e-05
-8.32059e-05
-8.05782e-05
-0.000129847
-5.44463e-05
-2.43088e-05
-5.78346e-05
-2.30702e-05
-3.90702e-05
-1.67353e-05
-1.63738e-05
-2.54368e-05
-6.37378e-05
-6.99316e-05
-4.28071e-05
-6.32722e-05
-5.90578e-05
-6.04938e-05
-4.68112e-05
-6.23587e-05
-7.41351e-05
-9.49125e-05
-5.89607e-05
-8.18231e-05
-8.00796e-05
-2.69456e-05
-5.97441e-05
-2.14584e-05
-6.19771e-05
-4.43761e-05
-6.69274e-05
-5.34548e-05
-2.62952e-05
-5.22771e-05
-4.85314e-05
-6.21692e-05
-6.59175e-05
-6.59992e-05
-5.4455e-05
-7.02894e-05
-5.95932e-05
-4.15455e-05
-5.28877e-05
-5.4691e-05
-6.05432e-05
-4.78384e-05
-2.56861e-05
-2.03183e-05
-7.79786e-05
-9.40983e-05
-6.52153e-05
-6.09476e-05
-4.33538e-05
-6.9537e-05
-4.59273e-05
-4.41395e-05
-5.11777e-05
-7.96834e-05
-3.03563e-05
-0.000101206
-5.82588e-05
-7.18617e-05
-3.99268e-05
-4.86844e-05
-2.80795e-05
-2.19693e-05
-6.00534e-05
-4.77846e-05
-3.27365e-05
1.36822e-05
-4.62174e-05
-5.38134e-05
-3.36375e-05
-4.94252e-05
-3.49056e-05
-9.50938e-06
-6.45989e-05
-4.65643e-05
-4.08418e-05
-6.83126e-05
-2.20277e-05
-6.18677e-05
-9.5373e-05
-8.85996e-05
-0.00010893
-4.75244e-05
-7.99545e-05
-8.87286e-05
-6.87187e-05
-5.35905e-05
-7.82315e-05
-7.46822e-05
-4.19342e-05
-4.70381e-05
-5.54221e-05
-3.81928e-05
-6.9405e-05
-4.03897e-05
-3.67847e-05
-7.91062e-06
-9.05024e-05
-5.20391e-05
-5.13722e-05
-1.66431e-05
-1.64266e-05
-5.376e-05
-2.03315e-05
-2.32455e-05
3.17639e-06
-1.41038e-05
-2.37486e-05
-4.37167e-05
-3.05431e-05
-4.84404e-05
-2.34409e-05
-5.17134e-05
-2.91995e-05
-2.54219e-05
-6.75882e-05
-6.20219e-05
-1.50622e-05
-5.24413e-05
-2.31551e-05
-7.94195e-05
-4.69618e-05
-9.31825e-05
-5.02403e-05
-8.6876e-05
-5.37832e-05
-6.85489e-05
-2.54389e-05
-6.57735e-05
-5.3751e-05
-3.3236e-05
-5.24172e-05
-8.98091e-05
-7.96005e-05
-5.64285e-05
-4.36862e-05
-7.74016e-05
-6.99073e-05
-4.37672e-05
-4.53196e-05
-6.49219e-05
-5.58469e-05
-6.18222e-05
-4.85872e-05
-6.17248e-05
-7.02557e-05
-2.63933e-05
-9.86755e-06
-0.000106641
-4.42344e-05
-2.25558e-06
-4.27734e-05
-2.15894e-05
-8.53428e-06
-2.41556e-05
-3.41027e-05
-5.5333e-05
-5.21511e-05
-3.82993e-05
-3.8461e-05
-3.18885e-05
-3.55405e-05
-5.422e-05
-2.19777e-05
-3.78629e-05
-3.31535e-05
-4.86473e-05
-4.43001e-05
-2.39197e-05
-8.2131e-05
-6.0386e-05
-3.46961e-05
-4.97795e-05
-6.89304e-05
1.68677e-06
-5.66623e-05
-4.84835e-05
-4.7938e-05
-4.26518e-05
-3.18082e-05
-9.6396e-05
-9.23208e-05
-6.59783e-05
-3.1656e-05
-1.51468e-05
-1.70148e-05
-2.11956e-05
-5.78862e-05
-7.90316e-05
-9.0864e-05
-4.96356e-05
-6.66045e-05
-1.89491e-05
-5.80963e-05
-3.46622e-05
-6.47816e-05
-3.79811e-05
-5.05869e-05
-7.71322e-05
-5.0966e-05
-2.8243e-05
-7.70839e-05
-8.14652e-05
-5.56467e-05
-2.55795e-06
-4.46333e-05
-2.37467e-05
-5.71449e-05
-4.98253e-05
-4.42814e-05
-5.78747e-05
-4.94187e-05
-7.89836e-05
-8.29244e-05
-8.46241e-05
-4.32066e-05
-5.36534e-05
-0.000101293
-0.000100487
-4.65162e-05
-6.90291e-05
-8.58974e-05
-4.38391e-05
-2.43806e-05
-3.1621e-05
1.67156e-05
-5.86535e-05
-5.02269e-05
-6.1045e-05
-4.32194e-05
-4.80089e-05
-7.5766e-05
-6.00974e-05
-4.2071e-05
-3.88511e-05
-7.30892e-05
-7.06781e-05
-4.59733e-05
-6.30382e-05
-0.000105826
-3.05497e-05
-4.27875e-05
-6.72661e-05
-6.90428e-05
-4.78656e-05
-8.98263e-05
-5.65475e-05
-9.36118e-05
-2.17871e-05
-6.32194e-05
-4.2607e-05
-3.39806e-05
-7.19713e-05
-1.75433e-05
-5.21787e-05
-2.89746e-05
-3.42561e-05
-2.40669e-05
-2.31808e-05
-3.25957e-05
-5.64155e-05
-4.46484e-05
-6.35586e-05
-5.28036e-05
-5.5527e-05
-3.40988e-05
-2.0933e-05
-6.76069e-05
-5.63341e-05
-6.74932e-05
-3.54226e-05
-2.79788e-05
-4.56965e-05
-7.46431e-05
-5.75195e-05
-7.32498e-05
-4.16987e-05
-2.64556e-05
-6.99449e-05
-4.5948e-05
-7.31728e-05
-7.52498e-05
-6.04182e-05
-9.31295e-05
-2.07243e-05
-5.05655e-05
-3.73741e-05
-6.21264e-05
-7.81177e-05
-5.91443e-05
-7.07598e-05
-3.14446e-05
-5.8831e-05
-9.72505e-06
-8.34655e-06
-2.18349e-05
-3.29077e-05
-7.03889e-05
-6.01879e-05
-4.93526e-05
-7.21571e-06
-4.72822e-05
-6.04076e-05
-6.38463e-05
-2.95599e-05
-2.41558e-05
-4.70572e-05
-6.95485e-05
-4.61776e-05
-5.98888e-05
-6.07084e-05
-1.42071e-05
-8.1848e-05
-2.68789e-05
-1.78714e-05
-8.68861e-05
-5.41203e-05
-5.98783e-05
-1.91834e-05
-2.91847e-05
-5.60049e-05
-6.56371e-05
-4.48709e-05
-8.30314e-05
-4.4486e-05
-6.18658e-05
-4.83928e-05
-3.40499e-05
-7.01603e-05
-6.45046e-05
-6.54161e-05
-1.10405e-05
-2.7751e-05
-5.7242e-05
-6.01592e-05
-1.19997e-05
-6.54192e-05
-7.97326e-05
-5.12903e-05
-1.44311e-05
-5.40437e-05
-1.96167e-05
-2.54282e-05
-4.45856e-05
-7.64445e-05
-1.75689e-06
-4.20401e-05
-5.05382e-05
-3.4135e-05
-4.18639e-05
-3.7688e-05
-6.72369e-06
-6.69686e-05
-9.27774e-05
-9.1614e-05
-4.87567e-05
-3.44678e-05
-3.76161e-05
-4.04524e-05
-3.57154e-05
-3.88763e-05
-7.0534e-05
-6.36535e-05
-4.88169e-05
-2.05768e-05
-3.39488e-05
1.20233e-05
-5.05371e-05
-3.93231e-05
-1.47276e-05
-5.96219e-05
-6.27105e-05
-4.42525e-05
-6.81848e-05
-4.65875e-05
-6.2876e-05
-5.05669e-05
-6.6848e-05
-3.42679e-05
-6.89049e-05
-9.31775e-05
-6.6645e-05
-6.6738e-05
-6.29418e-05
-1.65124e-05
-2.0808e-05
-6.30582e-05
-7.21148e-05
-7.43984e-05
-2.3536e-05
-5.74403e-05
-5.02051e-05
-5.52176e-05
-6.30489e-05
-1.99564e-05
-9.58941e-05
-1.98748e-05
-7.9548e-05
-4.65831e-05
-3.09668e-05
-3.63684e-05
-6.88366e-05
-8.22018e-06
-8.58402e-05
-2.01412e-05
-2.87053e-06
-4.99024e-05
-2.38999e-05
-8.17349e-05
-2.61507e-05
-6.58757e-05
-6.14191e-05
-6.38381e-05
-4.52274e-05
-6.73416e-05
-5.60508e-05
-3.69937e-05
-3.62812e-05
-2.16909e-05
-5.25978e-05
-4.68396e-05
-9.84955e-05
-4.54716e-05
-2.82425e-05
-6.16552e-05
-0.00010066
-9.37149e-05
-5.97707e-05
-5.11875e-05
-8.60458e-06
-7.218e-05
-3.02675e-05
-5.37467e-05
-6.84792e-05
-5.39697e-05
-8.55697e-05
-5.70186e-05
-4.43318e-05
-7.46249e-05
-5.39576e-05
-6.45029e-05
-4.04215e-05
-3.96286e-05
-6.18867e-05
-4.43054e-05
-4.92188e-05
-7.08182e-05
-8.0494e-05
-1.36846e-05
-4.53569e-05
-7.47854e-05
1.10452e-05
-4.00615e-05
-6.62209e-05
-6.60553e-05
-6.64928e-05
-5.71588e-05
-8.38892e-05
-4.95738e-05
-7.35912e-05
-5.33369e-05
-4.09565e-05
-7.70612e-05
-0.000103045
-4.23797e-05
-6.51791e-05
-2.30575e-08
-9.27424e-05
-9.03458e-05
-4.14145e-05
-5.10198e-05
-5.53899e-05
-6.27499e-05
-7.60523e-05
-7.09495e-05
-5.02574e-05
-4.61892e-05
-9.26645e-05
-6.87168e-05
-8.27108e-05
-9.72546e-05
-1.46679e-05
-7.06861e-05
-7.16043e-05
-6.5901e-05
-7.1093e-05
-6.02636e-05
-0.000104296
-5.33131e-05
-3.12194e-05
-4.41575e-05
-6.6792e-05
-3.96564e-05
-5.84526e-05
-4.72088e-05
-4.09258e-05
-2.36081e-05
-7.64496e-05
-4.27858e-05
-5.11629e-05
-1.12454e-05
-4.90987e-05
-3.80809e-05
-2.35795e-05
-1.23154e-05
-8.7035e-05
-5.68652e-05
-6.04051e-05
-3.86307e-05
-3.16299e-05
-9.40892e-05
-4.61797e-05
-4.48456e-05
-4.71725e-05
-4.5764e-05
-3.20262e-05
-3.53156e-05
-5.89917e-05
-3.26853e-05
-7.8398e-05
-3.75833e-05
-4.07948e-05
-1.98458e-05
-3.35602e-05
-9.60585e-05
-5.46692e-05
-2.16714e-05
-2.35546e-05
-2.86457e-05
-8.18749e-05
-5.434e-05
-5.24657e-05
-3.85127e-05
-4.91674e-05
-5.70942e-05
-3.78917e-05
-2.36381e-05
-5.33271e-05
-8.5232e-05
-6.48104e-05
-3.85415e-05
-3.41621e-05
-5.54446e-05
-7.70684e-05
-4.12874e-05
-3.63783e-05
-4.72707e-05
-6.56728e-05
-2.46689e-05
-4.4223e-05
-2.2015e-05
-7.03635e-05
-3.07078e-05
-5.42588e-05
-3.45614e-05
-8.72456e-05
-3.79583e-05
-1.22908e-05
-4.90084e-05
-8.00207e-06
-5.55454e-05
-4.96327e-05
-6.1335e-05
-6.6407e-05
-4.6962e-05
-3.20411e-05
-6.94945e-05
-3.24979e-05
-6.02031e-05
-4.15042e-05
-3.42573e-05
-2.21077e-05
-7.00925e-05
-4.81868e-05
-5.76688e-05
-5.5167e-05
-6.30092e-05
-4.68748e-05
-4.50338e-05
-4.60306e-05
-3.53507e-05
-6.8564e-05
-7.88514e-05
-4.38555e-05
-5.16484e-05
-3.16445e-05
-2.6691e-05
-6.07148e-05
-5.59938e-05
-5.34489e-05
-5.14449e-05
-7.00991e-05
-6.7715e-05
-4.07309e-06
-5.89296e-05
-6.22999e-05
-5.765e-05
-6.03806e-05
-7.4448e-05
-5.87546e-05
-7.65314e-06
-7.56635e-06
-2.35469e-05
-7.74628e-05
-6.45485e-05
-5.52355e-05
-6.51429e-05
-2.96209e-05
-6.54799e-05
-9.67536e-05
-6.24591e-05
-5.23179e-05
-6.53089e-05
-6.61554e-05
-4.97982e-05
-6.21793e-05
-3.20248e-06
-5.96676e-05
-5.81653e-05
-5.20348e-05
-6.4276e-05
-1.60716e-05
-2.65933e-05
-9.2627e-05
-7.38252e-05
-7.30264e-05
-9.09875e-05
-6.75476e-05
-3.452e-05
-9.07965e-05
-2.43558e-05
-5.68657e-05
-7.33982e-05
-3.58748e-05
-3.87773e-05
-5.64878e-05
-6.90629e-05
-2.52133e-05
-4.76556e-05
-4.6464e-05
-1.21115e-05
-5.03032e-05
-6.03973e-05
-5.51477e-05
-8.23683e-05
-5.64964e-05
-3.91456e-05
-1.41161e-05
-6.78649e-05
-5.83513e-05
-6.45701e-05
-3.90779e-05
8.90577e-08
-5.24189e-05
-3.06184e-05
-2.68856e-05
-3.74097e-05
-4.84396e-05
-5.61302e-05
-2.69964e-05
-2.23279e-05
-4.85054e-05
-3.80467e-05
-4.52171e-05
-3.71037e-05
-4.17925e-05
-4.19071e-05
-4.55457e-05
-0.000101958
-4.45931e-05
-3.75628e-05
-4.11174e-05
-4.11168e-05
-3.83384e-05
-1.69796e-05
-6.36762e-05
-6.78131e-05
-7.36202e-05
-4.53294e-05
-7.98175e-05
-7.88101e-05
-9.63613e-05
-9.33544e-05
-0.000119288
-5.85739e-05
-2.63874e-05
-6.98985e-05
-5.50051e-05
-3.94477e-05
-4.32756e-05
-4.00624e-05
-2.98547e-05
-3.73522e-05
-5.52799e-05
-3.74326e-05
-7.32677e-05
-4.92462e-05
-1.06745e-05
-4.61892e-05
-3.4503e-05
-3.23253e-05
-7.59156e-05
-7.83501e-05
-4.79126e-05
-3.90445e-05
-6.86459e-05
-4.17049e-05
-0.000102049
-4.61158e-05
-7.93473e-05
-8.55436e-05
-6.69553e-05
-6.30825e-05
-4.37434e-05
-2.12972e-05
-7.12844e-05
-3.45202e-05
-4.04589e-05
-4.01555e-05
-5.43197e-05
-7.55562e-05
-5.18113e-05
-9.37137e-05
-0.000113661
-0.000105367
-9.14928e-05
-1.68597e-05
-2.03537e-05
-6.23824e-05
-4.29569e-05
-6.43251e-05
-5.04181e-05
-5.33771e-05
-5.63413e-05
-7.80839e-05
-7.85279e-05
-9.1081e-05
-2.78734e-05
-6.44193e-05
-8.72874e-05
-5.26001e-05
-5.08195e-05
-1.54262e-05
-0.000114303
-9.05595e-05
-8.1554e-05
-6.16596e-05
-6.74305e-05
-7.11332e-05
-3.96114e-05
-3.38312e-05
-6.35463e-05
-3.9341e-05
-9.94656e-05
-5.45699e-05
-5.70275e-05
-4.10112e-05
-0.000105918
-6.13839e-05
-1.09329e-05
-5.94867e-05
-2.82051e-05
-5.17501e-05
-4.64801e-05
-4.75087e-05
-2.25124e-05
-0.000100019
-4.10218e-05
-5.59112e-05
-7.31677e-05
-6.88819e-05
-3.30804e-05
-1.39073e-05
-5.50105e-05
-1.62962e-05
-8.70867e-05
-1.05578e-05
-1.48662e-05
-6.94488e-05
-8.30546e-05
-8.83242e-05
-5.62578e-05
-4.49491e-05
-2.05546e-05
-3.72458e-05
-6.6155e-05
-7.67343e-05
-4.10696e-05
-6.82778e-05
-1.84354e-05
-7.03531e-05
-6.35912e-05
-3.33199e-06
-2.45821e-05
-2.30942e-05
-5.71244e-05
-3.26647e-05
-3.40916e-05
-7.46885e-05
-2.27212e-05
-5.51506e-05
-4.86178e-05
-7.07019e-06
-3.67856e-05
-5.18633e-05
-3.38807e-05
-5.58487e-05
-5.87188e-05
-7.6177e-06
-5.65847e-05
-8.71023e-05
-4.66713e-05
-8.93712e-05
-2.91705e-05
-4.44713e-05
-4.79863e-05
-5.92949e-05
-2.98702e-05
-5.78584e-05
-5.8859e-05
-6.80631e-05
-6.02958e-05
-2.61164e-05
-5.22216e-05
-3.46897e-05
-2.8604e-05
-2.66929e-05
-3.18831e-05
-4.77291e-05
-7.27373e-05
-5.56886e-05
-2.88208e-05
-4.12642e-05
-1.03928e-05
-2.82144e-05
-6.07804e-05
-5.55537e-05
-1.81554e-05
-9.26361e-05
-7.07065e-05
-6.40139e-07
-5.45014e-05
-3.91349e-05
-1.1008e-05
-4.71554e-05
-5.28089e-05
3.49656e-06
-6.2247e-05
-4.59137e-05
-3.67829e-05
-7.54447e-05
-4.643e-05
-2.06286e-05
-4.14031e-05
-5.47398e-05
-3.19987e-05
-4.26409e-05
4.65501e-06
-1.34011e-05
-4.50452e-05
-4.83375e-05
-1.87114e-06
-4.35891e-05
-2.31144e-05
-4.89192e-05
-5.32395e-05
-5.31191e-05
-5.52649e-05
-5.89743e-05
-6.02902e-05
-2.83173e-05
-2.69497e-05
-1.85804e-05
-7.04824e-05
-3.79036e-05
-5.89691e-05
-1.09763e-05
-1.93782e-05
-1.69156e-05
-5.49634e-05
-8.90973e-05
-6.68388e-05
-7.10575e-05
-2.76888e-05
-3.70698e-05
-2.73762e-05
-4.34393e-05
-3.37409e-05
-2.93692e-05
-7.0655e-05
-9.95979e-05
-8.03593e-05
-4.66738e-05
-4.82376e-05
-4.91042e-05
-2.98372e-05
-4.82755e-06
-6.14904e-05
-5.57988e-05
-8.66197e-05
-5.87342e-05
-6.90459e-05
-7.2063e-05
-6.43433e-05
-3.7599e-05
-9.14388e-05
-6.58691e-05
-8.55071e-05
-2.72594e-05
-8.57023e-05
-4.69671e-05
-6.41858e-05
-3.86979e-05
-9.25259e-05
-1.26437e-05
-3.74362e-05
-5.68236e-05
-2.86184e-05
-4.33865e-05
-6.42154e-05
-3.17992e-05
-2.44462e-05
-5.51416e-05
-6.66011e-05
-2.12503e-05
-4.76136e-05
-7.05242e-05
-3.83811e-05
-5.10835e-05
-5.7435e-05
-7.88549e-05
-9.75859e-05
-6.20896e-05
-8.20417e-05
-2.1481e-05
-2.5285e-05
-6.35622e-05
-5.13375e-05
-4.06383e-05
-5.83684e-05
-8.17677e-05
-5.31072e-05
-5.2203e-05
-4.75489e-05
-8.96968e-05
-5.991e-05
-6.8648e-05
-4.46158e-05
-6.80016e-05
-9.01451e-05
-3.97979e-05
-6.68304e-05
-6.587e-05
-7.28284e-05
-7.76727e-05
-3.30016e-05
-6.05077e-05
-5.13305e-05
-7.10828e-05
-4.30776e-05
-6.26428e-05
-7.61995e-05
-5.57487e-05
-5.06813e-05
-5.12105e-05
-5.4358e-05
-5.83583e-05
-6.61285e-05
-7.04002e-05
-6.65375e-05
-3.77038e-05
-5.93081e-05
-8.03624e-05
-3.33689e-05
-4.61637e-05
-6.76165e-05
-7.28768e-05
-4.66448e-05
-7.3692e-05
-4.4753e-05
-3.33115e-05
-3.27042e-05
-4.44278e-05
-1.29647e-05
-7.88419e-05
-3.00176e-05
-3.38617e-05
-5.21797e-05
-5.87412e-05
-0.000104692
-3.64344e-05
-3.17764e-05
-5.93961e-05
-7.38044e-05
-5.86954e-05
-5.96733e-05
-3.71559e-05
-2.71859e-05
-5.71271e-05
-6.70005e-05
-3.32413e-05
-7.41011e-05
-9.78164e-05
-5.53071e-05
-6.69144e-05
-3.58402e-05
-3.1503e-05
-5.99647e-05
-1.60818e-05
-7.07491e-05
-8.35539e-05
-4.32061e-05
-2.43812e-05
-9.25442e-05
-3.23773e-05
-6.06348e-05
-7.40183e-05
-4.24132e-05
-5.07005e-05
-7.53955e-05
-5.0352e-05
-4.21302e-05
-5.13844e-05
-4.14139e-05
-2.79627e-05
-5.6692e-05
-2.62077e-05
-6.09822e-05
-6.28337e-05
-4.77098e-05
-3.18169e-05
-2.90742e-05
-4.22139e-05
-4.19533e-05
-5.29252e-06
-5.35145e-05
-5.37449e-05
-4.96078e-05
-5.87992e-05
-7.51331e-05
-6.69137e-05
-7.29308e-05
-4.03526e-05
-4.22998e-05
-3.57683e-05
-6.53032e-05
-2.99938e-06
-4.95909e-05
-2.46944e-05
-4.21702e-05
-5.83142e-05
-5.53377e-05
-7.2921e-05
-8.4202e-05
-3.94116e-05
-3.15051e-05
-1.95288e-05
-2.24386e-05
-4.02192e-05
-1.37305e-05
-2.37264e-05
-4.29061e-05
-2.65921e-05
-3.51831e-05
-8.4257e-05
-5.58646e-05
-6.97132e-05
-6.96467e-05
-0.000106959
-8.99036e-06
-5.42747e-05
-5.94902e-05
-1.27491e-05
-3.92358e-05
-2.97023e-05
-4.82203e-05
-7.01976e-05
-5.71274e-05
-3.52234e-05
-6.79021e-05
-6.65503e-05
-6.45949e-05
-8.47805e-05
-2.99356e-05
-9.26552e-05
-4.06698e-05
-5.19565e-05
-6.60496e-05
-2.37435e-05
-4.36983e-05
-3.26534e-05
-5.34434e-05
-3.03687e-05
-5.94283e-05
-6.01694e-05
-4.00737e-05
-7.28521e-05
-4.80434e-05
-4.23749e-05
-7.32079e-05
-3.62186e-05
-5.27105e-05
-3.95455e-05
-2.90165e-05
-8.0425e-05
-3.65801e-05
-5.01408e-05
-6.96564e-05
-2.43482e-05
-5.6681e-05
-5.10355e-05
-5.51205e-05
-2.11073e-05
-4.70472e-05
-5.26707e-05
-6.01508e-05
-4.43655e-05
-1.81572e-05
-3.72071e-06
-8.86445e-06
-7.66694e-05
-7.10099e-05
-6.04689e-05
-2.3337e-05
-5.50108e-05
-4.11823e-05
-5.23639e-05
-9.3124e-05
4.54934e-06
-2.06056e-05
-2.56046e-05
-4.36457e-05
-2.4617e-05
-5.22153e-05
-5.17414e-05
-1.34529e-05
-5.27318e-05
-4.3594e-05
-4.2316e-05
-3.26292e-05
-3.0555e-05
-3.06617e-05
-5.30046e-05
-6.90323e-05
-5.45053e-05
-4.05114e-05
-7.21452e-05
-6.99675e-05
-5.97452e-05
-3.42347e-05
-1.141e-05
-1.06919e-05
-1.00387e-05
-2.33355e-06
-2.70872e-05
-5.28647e-05
-6.70145e-05
-4.54125e-05
-8.55471e-05
-0.000128691
-4.5715e-05
-5.95098e-05
-5.82314e-05
-9.59599e-05
-4.27861e-05
-6.89474e-05
-4.19097e-05
-3.80111e-05
-5.89184e-05
-1.18322e-05
-1.78753e-05
-2.06532e-05
-4.59071e-05
-7.1685e-05
-3.92999e-05
-8.38054e-05
-6.37399e-05
-2.2062e-05
-1.41721e-05
-6.76748e-05
-5.21463e-05
-5.20547e-05
-5.6741e-05
-7.65685e-06
-7.26951e-05
-4.46487e-05
-5.54679e-05
-5.01963e-05
-8.78365e-06
-6.64232e-05
-4.02567e-05
-5.79117e-05
-4.71826e-05
-4.99615e-05
-3.23816e-05
-5.60882e-05
-7.30086e-05
-0.000102824
-3.83087e-05
-6.53989e-05
-5.59709e-05
-4.03531e-05
-7.52568e-05
-7.85431e-05
-0.000114534
-2.36872e-05
-1.20824e-05
-7.74526e-05
-8.13395e-05
-7.84367e-05
-2.25575e-05
-0.000109721
-9.29834e-05
-6.78314e-05
-5.49838e-05
-2.5828e-05
-4.19905e-05
-4.52479e-05
-3.73781e-05
5.35394e-06
-2.3331e-05
-5.23687e-05
-7.31039e-05
-1.72958e-05
-6.95414e-05
-6.03856e-05
-1.73975e-05
-5.0715e-05
-6.78834e-05
-2.48937e-05
-5.507e-05
-4.651e-05
-5.71386e-05
-7.49517e-05
-6.79874e-05
-4.67946e-05
-5.05324e-05
-5.28974e-05
-2.49015e-05
-2.63978e-05
-5.88174e-05
-4.40547e-05
7.04895e-08
-3.09314e-05
-7.09862e-05
-2.74792e-05
-2.79298e-05
-3.15355e-05
-5.13311e-05
-3.28471e-05
-4.53514e-05
-4.92475e-05
-4.19943e-05
-3.86609e-05
-2.4001e-05
-5.37839e-05
-5.80712e-05
-5.70102e-05
-3.79363e-05
-3.50654e-05
-7.77158e-05
-6.25964e-05
-7.40251e-05
-5.07817e-05
-3.7566e-05
-5.84415e-05
-6.14767e-05
-4.56005e-05
-4.78473e-05
-7.26994e-05
-4.15259e-05
-3.4982e-05
-6.90727e-05
-4.22947e-05
-7.57008e-05
-3.98059e-05
-3.84589e-05
-7.6122e-05
-3.61137e-05
-0.000105637
-6.91602e-05
-3.80729e-05
-4.88374e-05
-3.69899e-05
-7.76013e-05
-7.33195e-05
-3.61683e-05
-4.84261e-05
-7.06947e-05
-4.47968e-05
-2.01463e-06
-6.13438e-05
-3.87311e-05
-2.89528e-05
-2.90871e-05
-4.78415e-05
-1.4467e-05
-2.45275e-05
-4.97483e-05
-3.63603e-05
-7.56688e-05
-3.83717e-06
-5.2558e-05
-3.79321e-05
-2.48859e-05
-4.08902e-05
-5.75435e-05
-3.63899e-05
-2.53107e-05
-1.47684e-05
-5.90133e-05
-4.02604e-05
-3.97272e-05
-2.84145e-05
-4.73821e-05
-2.96398e-05
-7.71003e-05
-5.76496e-05
-4.89743e-05
-4.40816e-05
-8.73864e-05
-2.45756e-05
-5.99006e-05
-7.85927e-05
-6.10539e-05
-2.46623e-05
-1.93742e-05
-3.33129e-05
-3.69748e-05
-4.8559e-05
-6.92247e-05
-6.75676e-05
-2.99497e-05
-3.07403e-05
-7.61781e-05
-9.92883e-06
-7.08296e-05
-7.25431e-05
-4.51451e-05
-5.60283e-05
-2.81672e-05
-6.38571e-05
-3.57893e-05
-3.84551e-05
-6.4103e-05
-4.34829e-05
-4.19474e-05
-6.45669e-05
-4.13711e-05
-4.33475e-05
-1.93235e-05
-3.56482e-05
-2.51337e-05
-7.32366e-05
-8.91038e-05
-6.42764e-05
-1.52051e-05
-5.77835e-05
-5.97106e-05
-2.60196e-05
-4.25854e-05
-6.24967e-05
-2.89501e-05
-6.90269e-05
-3.36747e-05
-6.23442e-05
-3.43219e-05
-5.82315e-05
-5.16512e-05
-3.06188e-05
-2.50272e-05
1.49791e-05
-1.12705e-05
-5.84787e-05
-3.55878e-05
-3.9164e-05
-2.05075e-05
-7.54047e-05
-2.24013e-05
-2.14782e-05
-6.41606e-05
-3.1995e-05
-3.82357e-05
-4.22724e-05
-4.5979e-05
-3.40444e-05
-2.82201e-05
-3.7879e-05
-5.69718e-05
-1.43158e-05
-2.55358e-05
-2.39874e-05
-3.67144e-05
-3.61021e-05
-5.03507e-05
-7.6854e-05
-5.7326e-05
-6.25207e-05
-4.38301e-05
-7.42986e-05
-5.24473e-05
-6.70903e-05
-6.85563e-05
-5.20406e-05
-0.000128758
-6.107e-05
-6.22439e-05
-3.98773e-05
-4.39307e-05
-7.57717e-05
-3.03395e-05
-2.38821e-05
-3.95188e-06
-1.15609e-05
-4.47347e-05
-5.14574e-05
-5.15621e-05
-5.45954e-05
-1.55136e-05
-5.42666e-05
-5.0298e-05
-1.67565e-05
-4.60543e-05
-6.32014e-05
-5.57294e-05
-2.31178e-05
-4.7724e-05
-6.61689e-05
-6.75398e-05
-4.89862e-05
-8.14175e-05
-5.28491e-05
-2.73213e-05
-3.44824e-05
-4.15709e-05
-4.10083e-05
-4.00688e-05
-3.92072e-05
-4.91717e-05
-4.89255e-05
-5.01759e-05
-6.37274e-05
-2.28051e-05
-4.4434e-05
-4.47373e-05
-1.97715e-05
-5.22825e-05
-6.3004e-05
-2.47735e-05
-3.42353e-05
-2.01728e-05
-6.93985e-05
-2.91782e-05
-3.971e-05
-1.77384e-05
-1.33411e-05
-6.50314e-05
-6.45168e-05
-7.98321e-05
-5.20726e-05
-4.33075e-06
-2.55778e-05
-4.15652e-05
-1.56722e-05
-8.14667e-05
-5.24868e-05
-3.22995e-05
-5.58957e-05
-6.88993e-05
-1.88159e-05
-6.46944e-05
-6.73322e-05
-5.63019e-05
-4.00921e-05
-6.48152e-06
-4.24568e-05
-5.61083e-05
-6.32581e-05
-7.29153e-05
-8.76224e-05
-3.6642e-05
-2.00729e-05
-8.50122e-05
-6.25317e-05
-3.37913e-05
-7.38145e-05
-2.2498e-05
-7.82146e-05
-4.07187e-05
-3.10198e-05
-5.09035e-05
-2.33973e-05
-3.80816e-05
-3.26969e-05
1.21516e-05
-6.19516e-05
-5.819e-05
-8.37132e-05
-4.09334e-05
-7.37817e-05
-5.46369e-05
-3.76577e-05
-5.04568e-05
-6.85271e-05
-3.36789e-05
-2.14598e-05
-8.21613e-05
-4.90625e-05
-1.97787e-05
-1.83588e-05
-5.83155e-05
-2.54398e-05
-6.41302e-05
-6.59312e-05
-3.77541e-05
-6.18845e-05
-5.88776e-05
-7.75896e-05
-8.81889e-05
-7.04323e-05
-4.49944e-05
-2.4502e-05
-5.5455e-05
-5.70865e-05
-1.92325e-05
-5.51228e-05
-6.31984e-05
-7.96543e-05
-5.06329e-05
-1.79948e-05
-3.68926e-05
-5.40498e-05
-8.44998e-05
-4.58567e-05
-6.30043e-05
-7.37018e-05
-4.69442e-05
-2.89697e-05
-1.93084e-05
-6.8751e-05
-7.78004e-05
-2.95784e-05
-5.45598e-05
-4.00257e-05
-6.0184e-05
-2.49996e-05
-5.09523e-05
-4.2529e-05
-3.31375e-05
-6.49297e-05
-5.491e-05
-3.88687e-05
-7.03535e-05
-5.84755e-05
-1.41089e-05
-5.45413e-05
-1.01002e-05
-8.11202e-06
-8.29038e-05
-3.79765e-05
-8.29212e-05
-8.30699e-05
-3.42823e-05
-8.17562e-05
-4.37096e-05
-2.98555e-05
-5.69347e-05
-3.80946e-05
-3.72876e-05
-6.55496e-05
-6.08423e-05
-4.12773e-05
-2.78138e-05
-5.25514e-05
-5.30268e-05
-2.24535e-05
-4.70156e-05
-3.28577e-05
-5.86473e-05
-1.59327e-05
-5.65809e-05
-5.19758e-05
-5.86307e-05
-2.94243e-05
-3.71842e-05
-2.42986e-05
-4.43694e-05
-5.24737e-05
-6.19512e-05
-3.50002e-05
-1.68916e-05
-5.91946e-05
-7.92664e-05
-5.4303e-05
-6.86323e-05
-5.38964e-05
-6.69985e-05
-3.04162e-05
-4.76716e-05
-5.02643e-05
-1.61729e-05
-6.58526e-05
-1.22159e-05
-4.82697e-05
-1.9061e-05
-3.99098e-05
-5.79239e-05
-3.17118e-05
-4.82486e-05
-5.11724e-05
-8.00472e-05
-6.04851e-05
-2.10729e-05
-6.83223e-05
-4.95033e-05
-6.04193e-05
-3.27723e-05
-4.20316e-05
-3.83598e-05
-3.46134e-05
-3.83236e-05
-2.14415e-05
-6.87363e-05
-4.13398e-05
-8.47157e-05
-5.32457e-05
-5.19462e-05
-7.78989e-05
-6.88624e-05
-5.28583e-05
-4.53413e-05
-3.72488e-05
-4.67007e-05
8.22727e-06
-5.19942e-05
-1.20289e-05
-1.9185e-05
-6.44941e-05
-3.50156e-05
-3.61328e-05
-6.27075e-05
-1.6645e-05
-4.89183e-05
-5.79749e-05
-3.98479e-05
-5.1321e-05
-4.07108e-05
-7.98913e-05
-4.61485e-05
-5.68429e-05
-7.76467e-05
-2.90246e-05
-2.99188e-05
-1.51254e-05
-5.37199e-05
-5.24135e-05
-7.71097e-05
-1.16684e-05
-4.93566e-05
-5.13026e-05
-1.95807e-05
-7.59299e-05
-5.33097e-05
-2.48954e-05
-5.56671e-05
-5.37079e-05
-6.23027e-05
-2.81113e-05
-5.96594e-05
3.66115e-06
-4.99011e-05
-0.000117059
-9.05172e-05
-4.62904e-05
-7.69417e-05
-9.0068e-05
-1.91325e-05
-2.32673e-05
-7.75766e-05
-7.64157e-05
-4.82711e-05
-2.94844e-05
-3.60881e-05
-3.4928e-05
-5.18837e-05
-7.25284e-05
-2.06792e-05
-2.50574e-05
-4.51112e-05
-4.30867e-05
-6.01305e-05
-6.35227e-05
-7.52322e-05
-7.05426e-05
-1.83382e-05
-3.69402e-05
-4.12008e-05
-8.40087e-05
-5.0336e-05
-4.02414e-05
-1.37826e-05
-2.16031e-05
-4.19315e-05
-5.64989e-05
-4.98801e-05
-4.48376e-05
-5.05603e-05
-7.1146e-05
-6.01305e-05
-1.6829e-05
-4.28779e-05
-2.27336e-05
-3.45184e-05
-4.49922e-05
-7.03809e-05
-4.33863e-05
-5.92192e-05
-3.74348e-05
-6.65433e-05
-3.96877e-05
-5.66405e-05
-7.15565e-05
-3.28843e-05
-1.65942e-05
-6.99852e-05
-3.98986e-05
-4.07325e-05
-3.03456e-05
-7.29071e-05
-2.49788e-05
-3.42124e-05
-8.39479e-05
-5.9511e-05
-8.16497e-05
-0.000126401
-7.641e-05
-7.0138e-07
-2.49246e-05
-1.72258e-05
-1.43681e-05
-3.98448e-05
-4.74196e-05
-5.14859e-05
-4.34802e-05
-8.58887e-05
-1.77175e-05
-7.31326e-05
-3.65595e-05
-4.6686e-05
-3.22302e-05
-1.73393e-05
-6.70547e-05
-6.62226e-05
-9.33877e-05
-2.39626e-05
-5.7884e-05
-5.4003e-05
-5.8272e-05
-4.88803e-05
-4.77262e-05
-7.45279e-05
-4.71297e-05
-4.23327e-05
-7.90154e-05
-4.90911e-05
-7.12663e-05
-6.77328e-05
-6.24677e-05
-6.05228e-05
-4.9267e-05
-6.50648e-05
-1.6448e-05
-5.03913e-05
-4.24247e-05
-5.92238e-05
-5.76348e-05
-9.76682e-06
4.90257e-06
-5.69156e-05
-4.81454e-05
-8.39079e-05
-3.85862e-05
-6.64985e-05
-4.99691e-05
-3.74596e-05
-3.66246e-05
-2.41275e-05
-7.5893e-05
-7.53653e-05
-3.99427e-05
-6.52708e-05
-4.57188e-05
-4.38173e-05
-3.07969e-05
-1.87312e-05
-8.8467e-05
-6.20427e-05
-3.03774e-05
-7.48519e-05
-6.13644e-05
-5.82913e-05
-5.23332e-05
-3.13315e-05
-4.64287e-05
-3.02872e-05
-0.00010628
-4.7273e-05
-4.04674e-05
-7.29897e-05
-5.26597e-05
-4.95992e-05
-5.78553e-05
-4.63491e-05
-6.14158e-05
-3.39438e-05
-4.40539e-05
-6.51502e-05
-3.75477e-05
-6.94296e-05
-3.68276e-05
-5.0789e-05
-7.80408e-05
-7.93508e-05
-4.08721e-05
-3.07626e-05
-4.98002e-05
-7.43967e-05
-5.90517e-05
-6.39313e-05
-8.65113e-05
-4.94967e-05
-6.69159e-05
-3.8835e-05
-4.54458e-05
-4.33587e-05
-4.67533e-05
-5.57929e-05
-2.38558e-05
-3.51238e-05
-5.03463e-05
-9.1066e-06
-3.36625e-05
-3.02775e-05
-3.16853e-05
-2.51778e-05
-4.15562e-05
-4.45319e-05
-3.75839e-05
-8.21116e-05
-1.89698e-05
-1.08068e-05
-3.84775e-05
-3.48316e-05
-2.14685e-05
-2.56856e-05
-3.06447e-05
-4.71993e-05
-2.96367e-05
-7.86595e-05
-7.64777e-05
-3.43426e-05
-1.47697e-05
-2.28494e-05
-5.72343e-05
-3.63358e-05
-5.67992e-05
-2.06073e-05
-7.47684e-05
-4.39167e-05
-6.37748e-05
-5.9428e-05
-0.000117174
-6.2933e-05
-4.86138e-05
-2.35212e-05
-5.29679e-05
-1.49142e-05
-8.39901e-05
-6.07599e-05
-4.2302e-05
-9.02479e-05
-6.79416e-05
-3.66455e-05
-5.98015e-05
-7.22952e-05
-6.22632e-05
-2.38975e-05
-5.33468e-05
-8.78303e-06
-1.84696e-05
-5.51153e-05
-7.18217e-05
-1.90507e-05
-7.64633e-05
-3.61877e-05
-3.90309e-05
-4.21986e-05
-1.74194e-05
-5.57157e-05
-4.59353e-05
-1.59628e-05
-7.91556e-05
-3.09866e-05
-3.57746e-05
-1.08392e-05
-4.02275e-05
-7.44018e-05
-7.57753e-05
-4.50936e-05
-7.58175e-05
-4.49143e-05
-3.47454e-05
-4.45366e-05
-2.51118e-05
-4.86227e-05
-0.000100004
-8.59437e-05
-6.85653e-05
-2.93013e-05
-6.47546e-05
-5.80724e-05
1.50192e-05
-4.14132e-05
-3.46919e-05
-2.11797e-05
-4.18441e-05
-7.40649e-05
-5.34352e-05
-3.17366e-05
-5.02541e-05
-4.71671e-05
-3.88295e-05
-7.63658e-05
-8.10952e-05
-7.50233e-05
-5.63538e-05
-4.48897e-05
-8.23007e-05
-6.35153e-05
-9.00135e-05
-6.20595e-05
-5.11457e-05
-4.01218e-05
-7.23662e-05
-8.74112e-05
-8.02373e-05
-4.58372e-05
-3.9855e-05
-5.91768e-05
-7.03263e-05
-3.2807e-05
-2.81291e-05
-1.76734e-05
-7.76043e-05
-5.0068e-05
-4.80073e-05
-2.73727e-05
-2.2874e-05
-3.61819e-05
-5.53424e-05
-3.96109e-05
-5.79275e-05
-7.56791e-05
-8.01064e-05
-7.12728e-05
-5.90013e-05
-5.53604e-05
-4.68746e-05
-7.1249e-05
-9.02287e-05
-4.37917e-05
-5.25452e-05
-6.21244e-05
-4.27559e-05
-6.58512e-05
-4.65328e-05
-2.31815e-05
-2.00954e-05
-6.69614e-05
-6.32392e-05
-7.69108e-05
-8.79552e-05
-2.1428e-05
-5.75988e-05
-4.28942e-05
-3.37028e-05
-4.02525e-05
-5.28952e-05
-5.84537e-05
-9.37803e-05
-5.19385e-05
-6.16623e-05
-6.89217e-05
-8.29395e-05
-2.81937e-05
-6.03595e-05
-1.4413e-05
-8.06733e-05
-6.37772e-05
-4.98006e-05
-3.10637e-05
-4.84099e-05
-4.77459e-05
-2.00686e-05
-3.16522e-05
-5.56601e-05
-5.54955e-05
-3.8956e-05
-6.29248e-05
-3.2095e-05
-4.47194e-05
-1.23779e-05
-5.6792e-05
-7.66136e-05
-5.21821e-05
-7.03473e-05
-5.7241e-05
-1.58754e-05
-5.79365e-06
-8.85322e-05
-4.78193e-05
-6.96609e-05
-8.24627e-05
-6.1932e-05
-4.42282e-05
-6.22869e-05
-1.21919e-06
-8.24049e-05
-2.15615e-05
-7.32575e-05
-5.48887e-05
-1.51155e-05
-3.27788e-05
-4.37997e-05
-5.37819e-05
-4.84187e-05
-7.69345e-05
-3.17778e-05
-4.09783e-05
-4.13589e-05
-5.8508e-05
-4.25632e-05
-1.37159e-05
-4.4022e-05
-5.65805e-05
-5.4889e-05
-2.66051e-05
-2.48583e-05
-4.12834e-05
-5.44685e-05
-9.87436e-05
-5.5209e-05
-4.39352e-05
-3.87807e-05
-3.03553e-05
-3.14261e-05
-5.55367e-05
-3.78036e-05
-2.84698e-05
-6.21075e-05