# vtk DataFile Version 1.0
Net Charge Density
ASCII
DATASET STRUCTURED_POINTS
DIMENSIONS 256 128 1
ORIGIN 0 0 0
SPACING 0.15625 0.15625 1
POINT_DATA 32768
SCALARS rhonet float
LOOKUP_TABLE default
-8.89964e-05
-0.00016443
6.73251e-05
0.000180923
3.86313e-06
0.000191472
3.31746e-05
-3.29301e-05
0.000211425
0.00020405
2.30233e-05
0.000279595
0.000127751
-0.000183836
-0.000216213
0.000243326
0.000142678
-9.86997e-05
-2.87005e-05
2.38952e-05
4.87687e-06
0.000126141
-8.77728e-05
5.35583e-05
9.73924e-05
2.47741e-05
7.28205e-05
7.33131e-05
0.000266093
4.45558e-05
-0.000187995
-0.000141228
0.00013852
0.000197821
4.20049e-05
0.000104592
0.000146124
-7.05896e-05
3.89593e-05
2.23198e-05
0.00017894
0.00013508
8.85106e-05
0.000102748
0.000125256
6.33753e-06
2.51115e-05
8.20986e-05
5.31508e-05
0.000119897
0.000161602
-1.11042e-05
0.00015061
0.00017972
-9.16782e-05
-3.2959e-05
-3.99988e-05
0.000187686
0.000135206
0.000108327
-0.000173156
0.000276285
0.000165612
-3.84381e-05
-0.000121112
5.01915e-05
-8.66071e-05
0.00015755
1.51979e-05
-7.60973e-05
-6.64491e-05
-0.000151567
-3.41681e-05
0.000301608
7.66139e-05
-4.76977e-05
6.83876e-05
0.000145776
6.34154e-05
1.53657e-05
-0.000111347
-6.43473e-05
0.000307742
0.000107895
0.000156533
0.000151515
0.00018837
-0.000153582
0.000203115
0.00031454
8.47187e-05
-5.67466e-05
3.65078e-06
4.21897e-05
-1.17715e-05
0.000185573
-6.01255e-05
9.25149e-05
-0.000105056
0.000513904
0.000181121
-4.06469e-05
0.000103039
-1.57752e-05
1.81863e-05
0.000185247
1.56637e-05
-3.3039e-05
3.95838e-05
-5.65067e-05
9.67323e-05
0.000135004
-7.1015e-05
-0.000116246
-0.000293087
-1.20513e-05
0.000196575
0.000161801
1.39734e-05
-0.000188641
5.74628e-05
1.23902e-05
6.46162e-05
4.70168e-05
1.39864e-05
-2.69526e-05
8.53455e-05
2.44342e-05
0.00018368
2.48259e-05
3.65498e-05
0.000122553
9.48426e-05
-3.01064e-05
9.04195e-05
5.78715e-05
0.000279149
0.000120272
0.000106484
-0.000217122
-4.58118e-06
6.548e-05
-4.92635e-06
4.93011e-05
-3.99717e-05
0.00010235
0.00016881
-3.91204e-05
3.76487e-05
0.000252592
-8.82364e-05
-4.82015e-05
0.000177523
0.000274355
0.000128818
6.23008e-05
0.000135927
8.18423e-06
4.77409e-05
6.06261e-05
0.000130789
0.000107804
-8.3716e-05
9.65771e-05
-5.18438e-05
-0.000102244
0.000160798
0.000218389
0.000229294
4.46854e-05
-5.02181e-05
-2.03354e-06
-6.93253e-06
-3.22647e-05
9.88856e-05
0.000118853
0.000188594
-3.82813e-05
-0.000114185
9.3081e-05
0.000170247
0.000170585
-5.99469e-05
-0.000114894
3.01119e-05
0.000124835
0.000147015
0.000125632
0.000105982
0.000260402
0.000187682
0.000105557
7.29116e-05
-8.07226e-05
-0.000155445
0.000304989
0.000208996
3.35153e-05
0.000190698
6.13392e-06
7.67189e-06
1.51945e-05
0.000192277
8.82992e-05
-0.000104467
0.00014671
-5.74149e-05
-8.37934e-06
-8.24679e-05
0.000302362
-2.56733e-05
-0.00012002
0.00013921
0.000212545
-6.37479e-06
-5.47461e-05
3.51254e-05
5.77909e-05
4.46552e-05
0.000108326
-9.93179e-05
-0.000142599
0.000304249
8.5708e-05
-0.000139694
0.000208727
-8.71236e-05
6.99726e-05
-0.00020923
3.6551e-05
0.000211047
-0.000121397
-8.78274e-05
0.000243595
0.000104742
7.16869e-05
0.000175832
-8.41691e-05
0.000117093
0.000292926
3.00537e-05
-0.000198833
0.000113081
8.61069e-05
0.000117134
0.000126007
4.07926e-05
2.43264e-05
0.000117619
-7.49785e-06
6.64262e-05
-0.0001827
-1.10202e-05
-0.000116789
-5.03098e-05
0.000113211
9.38515e-05
7.11135e-06
-1.073e-06
-0.000114282
1.30757e-05
-9.59642e-05
-0.000187829
-1.47221e-05
0.000141969
-0.000105543
-2.11762e-05
0.000159347
-6.05981e-05
-0.000104908
-0.000191295
-3.15242e-05
2.67869e-05
-8.83364e-05
2.81919e-05
6.0301e-05
-2.11125e-05
-0.000153984
-6.70948e-06
-0.000122243
-5.28998e-05
-0.000213783
8.63422e-05
2.43848e-05
1.32923e-06
-1.46837e-05
-4.76749e-05
0.000114567
-3.24087e-05
-5.61262e-06
-1.98616e-05
-3.6921e-05
-3.48245e-06
-0.000116264
-5.2555e-05
-1.27149e-06
-2.64912e-05
-0.000104853
-3.60254e-05
8.13336e-05
-0.000105781
-0.000144954
7.52907e-05
4.11216e-05
-2.63745e-05
3.98706e-05
-9.31581e-05
4.86264e-05
8.55769e-07
4.31901e-06
-0.000119127
-7.30145e-05
6.05751e-05
2.74996e-05
-0.000101009
6.03887e-05
-2.35747e-05
-0.000135273
-4.44613e-06
1.76304e-05
-0.000143069
5.91768e-05
-6.20354e-06
4.06073e-05
8.06641e-05
-7.99202e-05
3.6455e-05
-5.82086e-05
-9.32394e-06
5.90811e-05
4.19955e-05
3.69131e-05
-4.19619e-05
-5.43676e-05
3.41019e-05
-4.6734e-05
-0.0001537
-6.71799e-05
6.00319e-05
-4.68121e-05
-3.43907e-05
-8.824e-05
4.55747e-05
-0.000176052
1.1282e-05
-0.00015407
-0.000127912
-9.47624e-05
-6.2147e-05
-4.80893e-05
5.2487e-05
-3.3679e-06
-0.000122983
4.30982e-05
-0.000154295
6.53998e-05
-0.00010901
-7.15223e-05
-5.46534e-05
0.000123682
-2.6908e-05
3.08172e-05
-0.000163153
0.000118407
-4.62128e-05
-0.000235137
-5.79352e-05
-7.17844e-05
-0.000163479
5.96768e-05
1.61468e-05
-7.24099e-05
2.98856e-05
-4.80516e-05
-4.5863e-05
-7.19622e-05
-3.38639e-05
-0.000109087
7.39488e-05
9.90357e-05
3.75018e-05
8.90731e-05
1.5695e-05
-6.02794e-05
2.84286e-05
-7.58178e-05
-6.37142e-05
0.000168835
-6.88585e-05
-0.000162257
2.27819e-05
1.59489e-06
-7.45545e-05
-0.000121428
-1.77685e-06
-0.000190662
0.00010786
0.000110056
-2.80035e-05
-1.88084e-05
-0.000179983
-8.35268e-05
9.67797e-05
8.11322e-06
6.51638e-05
0.000115119
-8.75529e-05
-5.66705e-05
4.48851e-05
-0.000137129
-9.15065e-05
-0.000117078
7.77817e-05
-6.16325e-05
-7.80418e-05
-4.38608e-05
6.10384e-05
-0.000105036
5.4233e-05
3.28158e-05
8.62762e-05
-5.37978e-05
-4.06355e-05
1.56844e-05
-4.02806e-05
-0.000211141
2.38116e-05
0.000203273
-1.5074e-05
4.13635e-05
-8.67897e-05
-6.52751e-05
3.89045e-05
-0.000102638
1.51226e-05
-4.97354e-05
-2.76987e-05
2.26517e-05
-3.52246e-05
-0.000176034
-0.000125343
-3.131e-05
-3.65893e-07
-0.000170565
-4.75529e-05
-5.782e-05
-0.000183783
-2.11979e-05
5.88741e-05
5.74172e-06
-3.58104e-05
-5.21936e-06
-8.06737e-05
-0.000193738
-0.000104422
-3.91721e-05
4.23507e-05
-9.05199e-05
-7.62015e-05
-8.52789e-06
0.00014616
-0.000152342
-5.96854e-05
9.52006e-05
-0.000116925
9.23371e-05
-9.78983e-05
-1.47182e-05
0.000151847
2.3779e-05
-7.93703e-05
-2.82908e-05
-1.92879e-05
-2.44336e-05
-0.000142313
0.00010553
4.18113e-05
1.3664e-05
-1.15989e-05
-2.04687e-05
-2.06404e-07
-1.97631e-05
2.11209e-05
0.000109334
-0.000261438
4.285e-05
4.00639e-05
-7.67001e-05
-6.17965e-05
-1.02727e-05
-0.000159575
-8.18922e-05
7.35666e-05
-4.22969e-05
9.2315e-06
-1.98811e-05
9.94618e-06
-8.87201e-07
-5.61636e-05
-3.99562e-05
-5.35054e-05
-0.000102719
9.0006e-05
-0.000219845
-0.000120905
-5.90219e-05
4.97613e-05
-3.80757e-05
-1.36701e-05
-2.83041e-06
-8.34803e-05
1.19546e-05
-7.01745e-05
-3.17381e-05
1.34769e-05
5.83422e-05
-0.000137647
-8.99405e-05
0.000151387
1.51159e-05
-6.14068e-06
-0.000129066
3.11771e-05
0.000173843
-0.000137103
4.43449e-05
0.000100966
9.51393e-06
9.34314e-06
4.56318e-05
-4.53e-05
0.000231801
-1.65912e-05
-9.65684e-05
0.000247102
-6.24571e-05
-9.62121e-05
4.41668e-05
-6.7814e-05
-9.39941e-05
-3.89069e-05
6.94157e-05
5.60171e-05
3.4889e-05
-0.000183195
5.50053e-05
9.55178e-05
2.66575e-05
-3.39602e-05
0.000120548
5.00341e-06
-7.52765e-05
0.000127643
-7.99588e-05
-8.11341e-05
-0.000202426
6.17059e-05
-9.95562e-05
-5.43235e-05
-5.94808e-05
-9.6013e-05
0.000116062
-0.000147444
1.14932e-05
-7.4331e-05
0.000155805
7.66397e-05
-6.99933e-05
7.37106e-05
-2.04371e-05
-8.95963e-05
9.62393e-05
-3.38339e-05
-3.49064e-05
4.17578e-05
0.000162895
3.63598e-05
8.7791e-05
-3.58358e-05
-2.20579e-05
-3.02296e-06
-1.37135e-05
3.0427e-05
5.12835e-05
-1.66399e-05
-6.64198e-05
-0.000106226
-3.41022e-05
-0.000114615
-1.21311e-05
2.69827e-05
0.000152796
4.2564e-05
-6.62479e-05
1.30313e-05
0.000125128
-3.36292e-05
0.000125025
-3.74271e-05
-0.000105816
-9.70289e-05
0.000180478
2.01128e-05
3.31971e-05
4.16909e-05
0.000125363
-0.000130524
0.000146989
3.85044e-05
-9.2203e-05
-5.52787e-06
-2.88951e-05
-7.75093e-05
-0.00016559
-6.21092e-05
8.73232e-05
0.000135409
-5.54554e-05
8.27909e-05
8.54181e-05
0.000115635
-8.62876e-05
4.55807e-05
0.000119126
0.000184091
2.40654e-06
0.000137161
5.34614e-05
5.22619e-05
5.68456e-05
0.000167474
-5.51228e-05
-1.33794e-05
-4.05206e-05
-0.00012564
6.85593e-05
-1.32682e-05
3.22422e-05
-2.87499e-05
-4.65662e-05
-8.74827e-05
-7.05926e-05
7.68011e-05
-9.85498e-05
4.49254e-05
-7.86622e-05
9.82091e-05
-0.000145106
-0.000182991
0.000104832
-1.31571e-05
-7.55027e-05
0.000210964
-6.38553e-05
8.74358e-05
0.000118602
-0.000142688
0.000153399
0.000188842
-0.000133897
-3.04492e-05
-8.05345e-05
-1.98925e-05
-2.80347e-05
5.00242e-05
-0.000123372
-0.000185927
2.17021e-05
2.22623e-05
-4.22016e-05
8.28363e-05
-0.000114716
-1.43953e-05
-3.40616e-05
-0.00010146
3.6577e-05
-5.14567e-05
0.000108135
-1.38629e-05
-8.48665e-05
1.70885e-05
0.000166328
4.82559e-05
-0.000137476
-0.000130724
-9.48529e-06
4.53356e-05
-0.000128979
5.08631e-05
1.61449e-05
-0.000157478
0.000116753
-5.86529e-05
-9.88622e-06
2.70256e-05
5.98149e-05
5.8868e-05
7.4768e-05
-2.03854e-05
6.78021e-05
-9.19695e-05
-5.69038e-06
-0.000144547
0.00017434
-1.03789e-05
-3.03937e-06
3.54423e-05
7.37598e-05
5.43416e-05
-7.24923e-05
-4.3993e-05
-3.6134e-05
2.63097e-05
0.000149055
6.77113e-05
-0.000108176
2.75206e-07
-0.000102251
0.000191155
-4.92902e-07
2.48827e-05
1.41296e-05
-5.52987e-05
-0.000112945
1.64517e-05
5.999e-05
-0.000104575
-2.01631e-05
-2.06161e-05
-2.06789e-05
2.71754e-05
3.29524e-05
9.95218e-05
-4.56776e-05
-3.40259e-06
3.48252e-05
5.44947e-05
4.12612e-05
0.000162434
-7.54967e-05
-7.04984e-05
-8.70903e-07
0.000148986
8.32421e-05
6.13601e-05
7.60477e-05
-1.61109e-05
-8.15571e-06
0.000102876
4.52766e-05
3.04822e-06
1.0299e-05
9.89576e-05
-6.89168e-05
3.38089e-05
7.08603e-05
-5.00828e-05
-0.000160351
2.85014e-05
-3.94697e-05
0.000187724
0.000159626
2.64986e-05
9.43413e-05
4.6271e-05
5.01343e-06
-5.5331e-06
0.00016653
-0.000108887
6.76439e-05
7.9785e-05
2.64235e-05
-3.3312e-05
-3.69881e-05
0.000154182
-0.000138618
-8.34805e-05
3.1343e-05
1.95648e-06
7.74227e-05
-8.67888e-05
-0.000106185
0.000124944
-3.27197e-06
3.75245e-05
9.61656e-05
-6.26927e-05
0.000192471
1.74623e-07
-0.000103404
-1.46431e-05
-7.02792e-05
0.000126965
-4.42551e-05
-3.1237e-05
-6.08345e-05
0.000185488
6.59458e-06
-2.88455e-05
2.55753e-06
-4.19511e-05
2.88811e-05
-7.87326e-05
-0.000245335
-4.55731e-06
1.41934e-06
-2.96711e-05
-0.000100693
6.97649e-05
9.95677e-05
2.10074e-05
9.20026e-05
0.000134083
6.70762e-06
-3.21715e-05
-1.05824e-05
0.000141856
-7.66031e-05
-3.02676e-05
-9.204e-05
-5.64925e-05
-6.99656e-05
-1.04227e-06
-3.1268e-05
-1.03464e-05
-1.91764e-05
6.47351e-06
-1.19127e-05
1.19e-05
-0.000124219
-0.000133448
2.95362e-05
2.0178e-05
7.01151e-05
-6.80157e-05
0.000112858
-5.64299e-05
-0.000102792
3.18148e-05
9.65792e-05
0.000142974
-0.00021521
-2.5156e-05
0.000155176
-7.0878e-05
-1.83517e-06
-9.00576e-05
-6.12382e-05
3.06281e-05
-2.73811e-05
0.000121417
-7.09202e-06
-0.000136559
5.42095e-05
-8.1833e-06
-8.82485e-05
-4.20748e-06
6.04573e-05
1.07265e-06
-0.000111191
-8.29693e-05
-0.000135973
-2.6122e-05
7.20012e-05
-0.000131597
2.96029e-05
2.28286e-05
-6.37439e-05
0.00025458
-1.29696e-05
-0.000103429
-5.66975e-05
-0.000126446
-7.45105e-06
9.49723e-05
-0.000134313
2.41229e-05
-7.84065e-05
9.75836e-05
3.62005e-05
9.45164e-05
2.15503e-05
-2.06128e-05
-3.88105e-05
-0.000148647
0.000226775
9.63688e-05
-7.6323e-05
2.87783e-05
8.77599e-05
-8.39321e-05
-2.85242e-05
0.00010019
-0.000145642
7.67794e-05
4.41067e-05
6.33274e-05
3.54631e-05
-4.70191e-05
6.01045e-05
0.000238688
-1.13719e-05
1.32808e-05
4.61282e-05
9.35651e-05
0.000111443
6.89398e-05
4.29251e-05
5.7176e-05
-0.000123357
-2.57513e-05
2.09778e-05
-7.54535e-05
-5.30498e-05
3.71691e-06
-4.13259e-05
0.000107549
-7.41165e-05
-8.38637e-05
3.15659e-05
-0.00015553
-4.05894e-06
8.1924e-05
7.88572e-05
8.92149e-06
-0.000158252
0.000104388
6.37074e-05
-9.68603e-05
8.46945e-06
-2.26427e-05
2.02244e-05
-5.8079e-05
-4.53767e-05
-0.000111838
-1.58469e-05
4.6669e-05
8.89553e-06
1.84816e-05
0.000207152
1.02582e-05
3.13804e-05
0.000133191
4.81957e-05
4.80297e-05
4.55593e-05
2.47975e-05
0.000182448
-2.09904e-05
-5.10683e-05
-0.00016566
-1.12364e-05
1.8183e-05
-8.31876e-05
-4.87244e-05
-7.17351e-06
6.01693e-06
-7.74848e-05
6.1496e-05
8.30104e-05
5.09629e-05
-9.22219e-06
-1.737e-05
4.85976e-06
0.000144274
-9.19837e-05
-0.000114029
-6.52786e-05
-1.09924e-05
8.56711e-05
-5.8522e-07
-1.54504e-05
0.000174422
0.000100693
-6.32096e-05
-0.0001399
1.76432e-05
-7.06057e-05
3.54814e-05
-0.000141504
8.52003e-05
7.95145e-05
-0.000127984
1.78963e-05
4.63221e-05
0.000139068
-4.06977e-05
-0.000219237
1.18926e-05
6.91263e-05
0.000103412
3.01389e-05
1.81206e-05
-8.48228e-05
-2.77947e-05
-3.61359e-05
-4.22501e-05
2.46974e-05
-0.000103875
-0.000121247
-1.83883e-05
-5.68036e-05
-0.000118191
-0.000102746
9.25113e-05
2.27757e-05
1.13465e-05
-0.000100635
-2.4838e-05
-9.26373e-05
3.89398e-05
5.67284e-05
-3.55963e-05
7.58737e-05
0.000112992
2.82424e-05
-6.06353e-05
1.33622e-05
-4.06097e-05
-1.77706e-05
8.73168e-05
-0.000233145
-0.000133023
0.000155851
-4.31323e-05
-1.50558e-05
-9.80136e-06
-1.25051e-05
3.95526e-05
-6.42716e-05
3.49211e-06
-0.000116738
-9.34419e-06
2.47867e-05
7.48537e-05
-0.000201998
-7.66094e-05
5.21205e-05
6.21416e-05
-2.86259e-05
-7.18143e-05
-8.01745e-05
-4.28617e-05
9.6095e-06
-5.6732e-05
-7.19774e-05
-4.8459e-05
1.45545e-05
0.000141873
0.00012703
1.97347e-06
9.00914e-05
5.61429e-05
-0.000165351
3.27246e-05
-6.42672e-05
9.1983e-05
-1.09884e-06
0.000159573
-1.11898e-05
-3.98199e-05
0.000106628
2.95397e-05
0.000145453
-0.000168276
-0.000103096
-5.2359e-05
4.49643e-06
2.28093e-06
6.18857e-05
-3.49612e-05
-0.000110267
8.19856e-05
-8.72049e-05
0.000166318
-0.000134454
4.82147e-05
-8.84826e-06
-3.29863e-06
7.42725e-05
-5.85741e-05
3.09364e-05
5.62402e-07
-9.50589e-05
6.60249e-05
-2.82363e-05
-8.41325e-05
-6.04364e-05
5.38501e-05
0.00025675
-0.000159862
2.50966e-05
3.67751e-05
-2.15387e-05
7.59179e-05
-7.97817e-05
0.000149188
-0.000147422
7.614e-05
-3.7276e-05
2.41605e-05
-6.29659e-05
-3.29034e-05
1.48165e-05
-4.53123e-05
-8.09513e-05
-7.09497e-05
0.000223434
-8.8918e-05
-7.10958e-05
5.09385e-05
-0.000254145
2.66443e-05
0.000193971
1.42027e-08
6.41401e-05
-9.98835e-05
3.32807e-05
4.92509e-05
4.34162e-05
-0.000144352
7.04243e-05
-1.69699e-06
-0.000104599
-6.99658e-05
-2.57371e-06
3.46696e-06
0.000126863
-8.41726e-05
0.000112349
-7.54325e-06
7.81077e-06
-0.000189092
2.34599e-05
-8.62766e-06
-0.000121178
-2.05014e-05
-6.07851e-06
5.29648e-05
-0.000192091
-9.772e-05
-8.92906e-07
-9.43663e-06
-0.000140862
1.41966e-05
0.000150768
-2.41937e-05
-5.047e-05
-0.000102181
-7.32185e-05
4.00073e-05
-8.40143e-05
-2.62016e-06
7.21652e-05
-5.01575e-06
-0.000208037
-5.41103e-05
5.78298e-05
3.01248e-06
-0.000111918
6.54021e-06
-5.46844e-05
-5.08734e-05
-0.000133589
3.31154e-05
-4.74066e-06
-5.78377e-05
1.08753e-05
-4.19088e-05
-7.33043e-05
-5.93823e-05
-6.3766e-05
-7.91913e-05
0.000179464
1.7667e-05
2.41748e-05
4.90119e-05
9.09171e-05
1.51547e-05
2.98345e-05
0.00012313
-3.18816e-05
-5.28051e-05
4.12745e-05
-3.41272e-05
3.48021e-05
5.96384e-05
4.79469e-05
4.51226e-05
-8.75883e-05
-0.000116376
0.000112259
0.000105033
5.79013e-05
-5.89759e-05
-0.000101084
-4.49345e-05
1.35775e-05
-8.03007e-05
-7.24145e-05
-5.80536e-05
-8.03953e-06
8.58202e-05
4.42248e-05
1.96769e-05
6.93053e-05
-1.14444e-05
4.66336e-05
0.000114619
6.39135e-05
2.45429e-05
1.20534e-05
-3.64084e-05
0.000183935
-4.00508e-05
-9.58394e-05
-7.9737e-05
-6.42384e-05
0.000156117
-6.36355e-05
-2.02826e-05
4.17326e-06
-4.45124e-05
7.46371e-05
4.88354e-05
-3.63686e-05
-0.000136864
2.26919e-05
8.50552e-05
-0.000120947
5.87202e-05
8.04805e-05
0.000141268
-9.6154e-05
-4.66127e-05
9.01567e-06
9.69332e-06
-7.78122e-05
-0.000100692
-1.29174e-05
-5.87931e-05
0.000103821
-6.09955e-05
8.94502e-05
9.45107e-05
-0.000128505
-4.94942e-05
-4.36888e-05
-7.08308e-05
-0.000152903
8.99582e-05
3.93856e-05
-3.43992e-05
8.36033e-05
-8.62692e-05
1.90386e-05
0.000105029
6.92393e-05
-0.00015256
-1.11224e-05
1.294e-05
-3.5984e-05
-0.000109607
-9.22394e-06
4.99605e-05
-0.000108295
-2.22254e-05
0.000162948
-3.69201e-05
-8.1397e-05
7.08321e-05
7.32483e-05
-0.000151626
1.86783e-05
-8.27659e-05
0.000149285
0.000208639
-8.35499e-05
0.000200181
-0.000120059
-1.88106e-05
6.65957e-05
2.44025e-05
3.58021e-05
-2.1806e-05
2.20287e-05
9.15944e-06
-1.01896e-05
7.73018e-05
0.000114986
0.000149647
-0.00023387
-7.6414e-05
-7.88822e-05
-9.34929e-05
-2.89034e-05
-6.38495e-05
-1.02564e-05
6.80239e-05
8.09907e-05
-9.77288e-05
-4.7761e-05
2.207e-05
-9.07236e-06
-7.34443e-05
-2.4792e-05
-5.54187e-05
-0.000158401
-0.000131674
-0.000131401
0.000161567
-3.50329e-06
0.000106311
6.27385e-05
8.72307e-05
2.11264e-05
-3.42306e-05
6.97584e-05
-0.000100716
-5.44623e-05
3.59344e-05
0.000133588
-0.000108584
-3.32656e-05
3.54217e-05
1.38134e-05
0.000106503
3.69294e-05
-6.15639e-05
1.43016e-06
3.04123e-06
-1.18784e-05
4.29848e-05
-0.00010853
5.92815e-05
-7.51659e-06
-9.04321e-05
0.000141919
-2.30513e-05
6.78841e-06
3.79232e-05
-0.000152063
4.06217e-05
5.02768e-05
0.000112594
0.000128137
-0.000125756
1.05306e-05
-5.09263e-05
2.98407e-05
2.57911e-05
-8.11835e-05
0.000115301
6.5963e-05
6.76943e-05
-0.000130828
-0.00011262
0.000101887
1.27126e-06
4.53308e-05
-8.13747e-05
-5.44182e-05
1.97915e-05
0.000133826
-0.000102773
2.49994e-05
2.97721e-05
-0.000129572
0.000129191
0.000223765
-9.91629e-05
3.28547e-05
-1.16023e-05
-8.31763e-05
-9.07924e-05
0.000253356
5.35448e-05
8.99077e-05
-1.28825e-05
1.56278e-05
-1.35129e-05
-6.94779e-05
0.000116717
6.96862e-07
-0.000128637
9.77191e-05
-3.59088e-05
7.8053e-06
-3.26311e-05
2.09082e-06
-0.000176927
3.63814e-05
8.55337e-05
3.70864e-06
-5.72647e-05
-6.51203e-05
3.48393e-05
7.93119e-05
-2.30512e-05
-9.24059e-05
0.000148317
2.08891e-05
-0.000112436
-1.74949e-06
2.79112e-05
0.000137688
2.49801e-05
9.28801e-05
-7.91812e-05
-3.03595e-05
-2.91762e-05
-9.09554e-05
2.60479e-05
5.77999e-05
-3.75829e-05
-1.97818e-05
0.000156924
1.18939e-05
-4.09653e-05
-4.77943e-06
6.18376e-05
3.51772e-05
-7.29744e-05
2.94533e-05
-4.75405e-05
-0.000199166
-5.49512e-05
0.00011342
1.65843e-05
0.000119959
-4.95455e-05
-5.48704e-05
-4.40069e-05
-0.00013232
-1.10685e-05
-3.26022e-05
2.95191e-05
-6.70102e-05
-5.68007e-05
4.42581e-05
0.000101566
-3.75578e-05
6.88514e-05
2.77112e-05
-1.84723e-05
6.68003e-06
2.38256e-05
-5.53911e-05
-4.54459e-05
-0.000216462
-2.11404e-05
-1.8077e-06
-2.2402e-05
-1.2093e-05
0.000100169
-2.95333e-05
-7.851e-05
-5.64097e-05
3.54518e-05
-0.000122102
2.53571e-05
-5.15477e-05
-4.73848e-05
-0.000177943
9.91316e-05
-2.02775e-05
-9.05289e-05
-0.000160803
3.15862e-05
2.0863e-05
0.000123533
2.61995e-05
0.000129311
0.000128507
-0.000103171
0.000114866
-0.000114433
-0.000105036
8.21952e-05
2.43448e-06
-7.25685e-05
7.05033e-05
-7.86391e-05
6.73993e-05
-0.000127969
-0.000100283
-0.000118212
-7.90143e-05
0.000137715
0.000141568
9.92976e-06
7.19056e-05
0.000100329
2.52507e-05
1.47452e-06
8.82394e-05
5.75719e-05
-6.24524e-05
8.51981e-05
-0.000157948
1.81696e-05
-3.88606e-06
4.89352e-05
4.22918e-05
-0.000100306
-1.68663e-06
-1.68708e-05
0.000236002
-3.15238e-05
0.000154999
8.43907e-05
-0.00017859
-0.000125187
8.14855e-05
0.000228192
9.75165e-05
5.02646e-06
-2.93704e-05
-2.13403e-05
-8.04663e-06
0.000111529
1.97906e-07
1.47172e-05
2.26218e-05
-5.05623e-05
-1.86265e-05
-9.56488e-05
1.27174e-05
-6.36943e-06
-4.83736e-05
-0.000162495
-0.00015067
-0.000123185
-0.000130302
-0.000143541
2.76942e-05
-1.19652e-05
2.78475e-05
9.66771e-05
-0.000155889
-2.90854e-05
4.30582e-05
5.52199e-05
5.57837e-05
-7.19579e-05
8.21794e-05
3.17999e-05
-1.61431e-05
0.000118334
-3.50528e-05
6.98174e-05
5.22411e-05
-7.46014e-05
0.000128429
6.87913e-05
5.37089e-05
0.000164081
-6.8103e-06
5.29109e-05
6.07581e-05
0.00010507
-3.679e-05
6.41252e-05
3.23203e-05
1.7388e-05
-6.4799e-05
3.52541e-05
-5.44719e-06
-5.82703e-05
1.32604e-05
7.89622e-06
3.92052e-06
-6.19179e-05
-0.000115362
0.000189382
-7.03009e-05
3.24491e-05
-1.29213e-05
1.29631e-05
3.50393e-05
-3.84758e-05
-0.000227834
1.54446e-05
6.68488e-05
0.000208984
-0.000137775
-0.000119737
3.37907e-06
-6.67848e-05
5.2811e-05
0.000212002
-5.04099e-05
4.52352e-05
6.23977e-05
6.92601e-06
3.33388e-05
-6.37036e-05
-0.000141852
-8.25967e-05
-2.83275e-05
6.21284e-05
7.06129e-05
-5.41138e-05
7.35439e-05
-7.91081e-05
-5.05359e-05
-4.26946e-05
-7.86111e-05
0.000134599
8.86398e-06
2.62039e-06
-3.53692e-05
-5.94275e-05
3.82781e-05
0.000139264
3.07467e-05
7.92136e-06
-4.5456e-05
9.66461e-05
-7.32999e-05
5.7451e-06
0.000131036
-4.60166e-05
6.88415e-05
1.54728e-05
-8.83695e-05
-5.20658e-05
1.93811e-05
-2.46967e-05
-0.000105774
5.53712e-05
8.18241e-05
-1.16581e-05
7.75491e-05
-7.53812e-05
1.98957e-05
-6.55055e-05
8.65612e-05
-3.59194e-05
3.04575e-05
-5.88947e-05
9.53034e-06
8.25459e-05
7.46215e-05
0.000122709
-5.17648e-05
-0.000140594
0.000190179
9.21043e-06
3.64252e-05
9.16629e-05
-3.47011e-05
4.3662e-05
3.07767e-05
-0.000150937
-8.95234e-05
0.000129958
-3.13127e-05
-7.87964e-05
6.66222e-06
-1.8935e-06
5.44356e-05
-0.00015793
6.44322e-05
4.38944e-06
3.60433e-05
-2.89255e-05
8.6172e-05
-1.95212e-05
0.000125604
-4.93157e-05
-0.000227412
-8.44891e-05
5.98045e-05
9.87013e-05
1.23554e-05
-5.95481e-05
-9.38494e-05
-3.79945e-06
9.86189e-06
2.55555e-05
-2.09047e-05
5.29059e-05
0.000165625
1.71979e-05
-1.62059e-05
8.63126e-05
9.69002e-05
0.00013841
-7.13122e-05
-9.83443e-05
-0.000187773
5.00737e-05
-0.000108282
-4.20377e-05
5.10602e-05
-1.11756e-05
-0.000140329
-4.61566e-05
9.76484e-05
1.93319e-06
0.000108967
-0.000172523
9.25409e-06
-0.000121085
-5.38621e-05
0.000162285
6.13241e-05
-2.99662e-05
7.61809e-05
0.000115906
-6.37939e-05
3.29333e-05
2.14525e-05
-4.11225e-06
5.75273e-05
2.30672e-05
2.59972e-05
-0.000109766
-5.54882e-05
-8.38388e-06
2.87618e-05
9.90407e-05
-4.36301e-05
1.81701e-05
-0.000169497
6.91152e-05
0.00012983
-9.32175e-05
-1.71877e-05
-6.78564e-05
-1.37766e-05
-2.54686e-05
4.15127e-05
2.24673e-05
-9.06694e-05
2.38966e-06
2.23627e-05
-1.01799e-05
-2.0626e-05
8.91828e-05
-1.05007e-06
-7.01818e-05
6.77109e-05
-0.000114378
0.000177749
6.07078e-05
-6.39325e-05
-4.53335e-05
-9.15685e-05
5.09657e-05
0.000144512
3.63763e-06
9.3159e-06
-4.96007e-05
-2.26526e-05
-0.000135984
6.1702e-05
-8.23094e-05
-2.61457e-05
6.40766e-05
-3.31928e-05
3.07765e-05
8.76577e-05
-0.000151892
-5.1677e-05
1.66289e-05
-6.09262e-05
-0.000119047
6.81182e-05
1.1238e-05
-9.24501e-06
-5.53962e-05
0.000118444
-2.72864e-05
-0.000138147
4.61019e-05
4.37279e-06
3.15579e-05
-5.22431e-05
-7.02603e-05
5.6606e-05
0.000132814
0.000165443
0.00012442
5.91393e-05
-9.19704e-05
1.8168e-05
6.40936e-06
8.71537e-05
4.34434e-05
8.68463e-05
-6.83201e-05
2.92052e-05
-3.11062e-05
2.90945e-05
7.03547e-05
-7.91657e-05
0.000121497
1.4635e-05
-3.86854e-05
-5.53839e-05
-9.6024e-05
0.000150604
4.09507e-05
-7.5448e-05
-6.59024e-05
3.9982e-05
-3.86497e-05
0.000112857
-0.000197858
4.93147e-05
-6.38689e-05
-1.7704e-05
-2.65976e-05
-0.000101566
-1.84751e-05
-3.32675e-05
-1.242e-05
-1.4306e-05
2.11503e-06
-3.65274e-05
2.22865e-05
-5.77045e-05
0.000197708
-0.000151494
-5.89502e-05
0.00013778
2.68316e-05
-9.80286e-05
-0.000124932
3.1143e-05
-1.9144e-05
1.89804e-06
9.94836e-05
0.000232891
7.02442e-05
-0.000154902
-8.72558e-05
0.000162866
4.77838e-06
-3.19071e-06
2.80285e-05
5.15267e-05
2.49967e-05
0.000113019
-0.00010313
6.42892e-06
-6.80699e-05
5.21252e-05
9.98096e-05
3.7533e-05
-1.25123e-05
2.78677e-05
-0.000175121
-3.98161e-05
0.000127756
5.71366e-06
-4.7381e-06
2.42178e-05
-0.000104495
-2.66102e-06
-0.000126257
-6.13289e-05
4.57141e-05
-2.7816e-05
7.88629e-05
0.000187593
0.000142461
-7.18025e-05
3.68709e-05
-7.99715e-05
-9.76789e-05
8.35122e-05
-7.66618e-05
1.73706e-05
3.8821e-05
3.7634e-05
-6.60974e-05
-4.90414e-05
-7.5486e-06
-0.000157611
7.44851e-05
0.000110231
0.000165343
-0.000116037
5.68123e-05
2.02921e-05
-4.26094e-05
4.47265e-05
-3.47781e-05
-3.89839e-05
-7.47693e-05
4.80473e-05
9.04485e-05
-5.58114e-05
-1.13865e-05
3.436e-06
0.000201405
-5.24536e-05
6.94703e-05
-1.13528e-06
-8.97852e-05
6.21274e-06
-1.40306e-05
-5.95945e-05
3.46329e-05
0.000132578
-3.57158e-05
3.04378e-05
0.000111536
1.88515e-05
-1.74171e-05
-4.3212e-05
-1.18215e-05
-1.31864e-06
2.33712e-05
-2.01708e-05
-7.93703e-05
0.000145507
1.79217e-05
-2.63035e-05
-3.20193e-05
7.6112e-05
-8.72696e-06
-0.000197836
-0.000123454
2.00721e-05
4.62927e-05
0.000133335
-1.32773e-05
2.91371e-05
4.53091e-05
-3.2646e-05
-4.05911e-05
0.000121259
6.09389e-05
1.83125e-05
-6.41076e-05
8.71443e-05
-3.52125e-05
-2.23265e-05
2.69902e-05
-0.000210487
0.000114811
-9.10566e-05
0.000143741
1.79427e-05
1.02352e-05
-2.47059e-05
8.52565e-05
0.000171645
-1.39991e-05
-7.11633e-05
-7.2832e-05
5.84443e-05
5.29927e-05
6.56092e-05
-9.69049e-05
-1.35747e-05
0.000129801
0.000239294
-4.43279e-05
3.97889e-05
-1.95489e-05
9.60256e-05
-3.60294e-05
-0.000116182
-2.88161e-05
-4.16209e-05
0.000108467
7.31414e-06
2.43827e-05
-3.95875e-05
-9.52773e-05
0.000234468
8.88009e-05
5.22877e-05
7.42768e-05
6.16396e-05
-4.00975e-05
-8.55422e-05
-0.000195943
-9.62387e-05
-2.46783e-05
4.10399e-05
7.28229e-05
-1.15095e-05
0.000226808
0.000109816
-0.000132022
-9.46352e-06
7.56363e-05
-8.94826e-06
3.65063e-05
0.000156297
0.000201727
3.54771e-05
0.000154689
-1.7944e-05
9.5935e-05
9.93998e-05
-0.000144887
-0.000179459
-5.57558e-05
-0.000112794
4.62697e-05
9.80345e-06
-3.3092e-05
-6.04559e-05
4.98875e-06
6.3122e-05
-4.55346e-05
8.09e-05
-4.53431e-05
-5.27857e-05
-3.14484e-06
-3.57053e-05
-9.53011e-06
-6.95036e-05
0.000112653
3.84292e-05
3.97174e-05
0.00011879
0.000150988
-1.5148e-05
-7.94139e-05
9.3492e-06
-0.0001943
9.04943e-06
0.000121528
0.000118377
1.48941e-05
-4.72452e-05
-0.000137435
9.47148e-05
7.65393e-05
2.43277e-05
-5.19564e-05
-9.07066e-05
-7.84028e-05
-0.000133181
0.000166111
0.000142645
-1.28017e-05
-6.76536e-06
6.35241e-05
-0.00016043
6.11542e-05
6.39417e-05
-4.49233e-05
-0.000135077
6.33213e-05
-1.69117e-06
7.0394e-05
-3.51341e-06
2.15794e-05
-9.54929e-05
4.5402e-08
3.92948e-06
-0.000138938
-4.66091e-05
-2.13988e-05
3.8251e-05
4.52863e-05
-5.11389e-05
-4.63862e-05
-3.81473e-05
-3.43006e-05
0.000192354
7.41845e-05
0.000221835
0.000152335
-0.000181403
7.71314e-05
-2.89918e-05
-3.52784e-05
-1.87594e-05
3.99147e-05
7.1595e-05
0.00011
-1.74607e-05
4.86121e-05
1.13621e-07
-2.96721e-05
-2.10712e-08
3.66988e-05
7.52391e-05
-6.67828e-05
-0.00012009
0.000114192
-8.3306e-05
0.000195564
-3.68103e-05
-4.92423e-05
-4.45825e-05
-6.72843e-05
-4.47984e-05
5.05159e-05
9.99533e-05
-0.000119873
-7.21819e-05
3.08803e-05
1.09177e-05
-6.43223e-05
-1.27677e-05
0.000136611
2.14312e-05
-8.01783e-05
0.000107602
-1.95252e-06
1.55655e-05
-0.000126493
-4.68822e-05
8.1287e-05
-2.08907e-05
-8.32621e-05
0.000186634
0.000197409
5.88673e-05
-0.000151033
-0.000109855
-0.000144196
-1.88312e-05
-2.3338e-05
9.07425e-05
0.000110765
8.38307e-07
0.000269337
6.35907e-06
-0.000178776
4.82049e-05
7.14092e-07
4.82134e-06
-7.97908e-05
-8.61993e-05
-1.99102e-05
-4.88926e-05
9.48088e-05
-7.22008e-07
0.000105487
-5.55776e-05
-3.23026e-05
-5.79818e-06
7.00363e-05
-2.66408e-05
5.87746e-06
2.30996e-05
-2.6938e-05
-3.54312e-05
0.000121423
-0.000192329
6.6626e-05
5.33485e-05
-3.13584e-05
-0.0001127
3.98424e-05
8.37328e-05
-0.000135247
-0.000129602
-3.15749e-05
-7.25348e-05
9.45916e-05
8.67738e-05
-0.000117805
-4.8225e-05
2.83704e-06
-0.00020758
2.65408e-05
0.000114953
2.77185e-06
-5.15217e-05
9.70061e-05
0.000128563
-5.79397e-05
4.13868e-05
8.48332e-05
-4.58407e-05
-9.13246e-05
0.000140747
2.60654e-05
-9.7152e-05
7.65491e-05
1.62689e-05
-0.000120146
-0.000104043
-4.25784e-05
0.000110973
2.5287e-05
-0.000134327
-6.4089e-05
0.000116879
5.9841e-05
-7.31114e-05
3.84442e-05
-2.63025e-05
-4.34952e-05
-9.02769e-05
2.12615e-05
-6.14579e-05
0.000181006
6.66182e-05
-0.00014922
-9.56678e-06
0.000104835
8.10268e-05
3.17442e-05
-2.58493e-05
-5.59189e-05
1.56059e-05
-4.15962e-05
4.94544e-05
-7.84522e-05
-0.0001203
1.8859e-05
3.4024e-05
-0.000102925
-9.41437e-05
-6.72657e-05
-2.0402e-05
-4.34601e-05
1.14383e-05
7.69983e-05
-0.000202481
-7.01298e-06
5.69591e-05
0.000138873
2.73692e-06
-1.34439e-05
0.000141716
-9.78195e-05
-1.75684e-05
-0.000114248
-4.51796e-06
0.000133411
-1.63744e-05
2.38848e-05
0.000114089
-1.51456e-05
5.78072e-06
-5.89266e-05
0.000106519
-0.000110708
6.32812e-05
0.000123234
-7.25348e-05
-4.84358e-06
4.08344e-05
-9.3549e-06
-0.000105669
-4.55792e-05
0.000124542
-6.00483e-05
-4.19328e-05
-0.000133914
-2.70044e-05
-2.51991e-05
5.45732e-06
-5.03496e-06
-7.69212e-05
6.50517e-06
0.000116325
0.000127374
0.00016673
-1.05556e-05
-0.00020648
0.000182522
7.48388e-05
-2.78915e-05
7.52544e-05
-4.91735e-05
-1.85492e-05
-1.14248e-05
3.40788e-05
-3.84288e-05
-7.33606e-05
8.69256e-05
6.50199e-05
-9.85956e-05
-5.78444e-06
-1.07898e-05
-5.80212e-05
-9.20611e-05
2.7671e-05
-8.15352e-05
-7.982e-05
2.13594e-05
0.000112224
9.84111e-05
7.53232e-05
-0.000211937
0.000163681
-7.19714e-05
4.48001e-06
-3.96576e-05
5.87146e-05
3.47932e-05
3.47586e-05
2.93545e-05
4.70458e-06
5.54372e-05
-1.48616e-06
-0.000124395
-3.48408e-06
-5.07147e-05
-2.10002e-05
0.000129397
-2.9257e-05
2.0918e-05
-7.0554e-05
-0.000171928
-3.46855e-05
0.000154134
-4.6525e-05
0.000150401
-1.40687e-05
2.78042e-05
-4.51306e-05
9.3953e-06
0.000141182
3.29128e-05
-4.06131e-05
6.5838e-05
3.87593e-05
-2.93368e-05
-3.00352e-05
-5.72344e-06
6.48907e-05
-3.88516e-05
0.000130689
-4.96432e-05
7.59361e-05
-3.69508e-05
9.97703e-06
-6.46459e-05
3.62751e-05
-2.49827e-05
-3.81784e-05
1.75787e-05
-6.32817e-05
-6.81197e-05
7.20699e-05
-4.26063e-05
-4.93641e-05
-9.92034e-05
-0.000139118
9.75183e-05
-3.39865e-05
-0.000114887
-0.000112189
4.04839e-05
-2.15922e-05
-4.61721e-05
0.000109451
7.06454e-05
-4.02327e-05
6.59095e-05
-3.00453e-05
4.02909e-05
0.000171771
-0.000140593
-0.000213177
-5.79011e-05
-5.55324e-06
6.44504e-05
-0.000166968
8.32402e-05
7.40779e-05
-5.58048e-06
1.56962e-05
0.000152073
4.79016e-05
2.48021e-05
-1.09858e-05
-6.54357e-05
-9.80819e-05
-5.30052e-05
-2.28528e-05
0.000155693
6.38096e-05
4.59799e-05
-3.6411e-05
-0.000112674
-4.98451e-05
1.40646e-05
6.1309e-06
-2.21181e-05
3.62446e-05
6.27335e-05
2.96989e-05
7.35477e-05
-3.08979e-05
-8.75965e-05
1.02562e-06
0.000234073
-6.07654e-05
-8.99275e-05
4.31335e-05
9.3603e-05
4.04282e-05
-5.69946e-06
-7.08206e-05
-1.62118e-05
-8.73025e-05
-9.12343e-05
7.18317e-06