# vtk DataFile Version 1.0
Net Charge Density
ASCII
DATASET STRUCTURED_POINTS
DIMENSIONS 256 128 1
ORIGIN 0 0 0
SPACING 0.15625 0.15625 1
POINT_DATA 32768
SCALARS rhonet float
LOOKUP_TABLE default
-8.89964e-05
-0.00016443
6.7325e-05
0.000180924
3.86324e-06
0.000191473
3.31749e-05
-3.29301e-05
0.000211425
0.00020405
2.30235e-05
0.000279595
0.000127751
-0.000183836
-0.000216214
0.000243326
0.000142679
-9.86996e-05
-2.87002e-05
2.38951e-05
4.87617e-06
0.000126141
-8.7773e-05
5.35581e-05
9.73919e-05
2.47741e-05
7.28208e-05
7.3313e-05
0.000266094
4.45556e-05
-0.000187995
-0.000141228
0.00013852
0.00019782
4.20047e-05
0.000104592
0.000146123
-7.05899e-05
3.89592e-05
2.23197e-05
0.000178941
0.00013508
8.85103e-05
0.000102748
0.000125256
6.33765e-06
2.51121e-05
8.20986e-05
5.3151e-05
0.000119896
0.000161602
-1.11039e-05
0.00015061
0.00017972
-9.16775e-05
-3.29583e-05
-3.99987e-05
0.000187685
0.000135206
0.000108327
-0.000173156
0.000276285
0.000165613
-3.84384e-05
-0.000121113
5.01911e-05
-8.66071e-05
0.000157549
1.51981e-05
-7.60974e-05
-6.64494e-05
-0.000151567
-3.41681e-05
0.000301608
7.66132e-05
-4.76972e-05
6.8387e-05
0.000145776
6.34148e-05
1.53654e-05
-0.000111347
-6.43475e-05
0.000307742
0.000107895
0.000156533
0.000151515
0.00018837
-0.000153581
0.000203115
0.000314539
8.47188e-05
-5.6747e-05
3.65078e-06
4.21898e-05
-1.17711e-05
0.000185572
-6.01253e-05
9.25153e-05
-0.000105055
0.000513904
0.000181121
-4.06468e-05
0.000103039
-1.57752e-05
1.81862e-05
0.000185246
1.56639e-05
-3.30391e-05
3.9584e-05
-5.65074e-05
9.67322e-05
0.000135004
-7.10147e-05
-0.000116246
-0.000293087
-1.20506e-05
0.000196575
0.000161801
1.39733e-05
-0.000188641
5.74628e-05
1.23902e-05
6.46163e-05
4.7017e-05
1.39866e-05
-2.69533e-05
8.53454e-05
2.44344e-05
0.000183679
2.48256e-05
3.65496e-05
0.000122553
9.48426e-05
-3.01066e-05
9.04198e-05
5.78713e-05
0.000279149
0.000120272
0.000106484
-0.000217122
-4.58118e-06
6.54794e-05
-4.92658e-06
4.93007e-05
-3.99719e-05
0.00010235
0.00016881
-3.912e-05
3.76487e-05
0.000252593
-8.82366e-05
-4.82025e-05
0.000177523
0.000274355
0.000128818
6.23011e-05
0.000135928
8.184e-06
4.77408e-05
6.06256e-05
0.000130789
0.000107804
-8.37166e-05
9.65773e-05
-5.18439e-05
-0.000102245
0.000160798
0.000218389
0.000229293
4.46854e-05
-5.02181e-05
-2.03284e-06
-6.93253e-06
-3.22645e-05
9.88854e-05
0.000118853
0.000188593
-3.8281e-05
-0.000114186
9.30813e-05
0.000170247
0.000170585
-5.99474e-05
-0.000114894
3.0112e-05
0.000124835
0.000147015
0.000125632
0.000105982
0.000260402
0.000187681
0.000105557
7.29115e-05
-8.07224e-05
-0.000155445
0.00030499
0.000208996
3.3515e-05
0.000190698
6.13392e-06
7.67189e-06
1.5195e-05
0.000192278
8.82999e-05
-0.000104467
0.00014671
-5.74142e-05
-8.37923e-06
-8.24684e-05
0.000302362
-2.5673e-05
-0.00012002
0.00013921
0.000212545
-6.3749e-06
-5.47466e-05
3.51249e-05
5.77915e-05
4.46549e-05
0.000108326
-9.93178e-05
-0.000142599
0.000304249
8.57085e-05
-0.000139695
0.000208727
-8.71238e-05
6.99725e-05
-0.000209231
3.65509e-05
0.000211047
-0.000121397
-8.78271e-05
0.000243595
0.000104742
7.16869e-05
0.000175832
-8.41684e-05
0.000117093
0.000292925
3.0054e-05
-0.000198833
0.000113081
8.61068e-05
0.000117134
0.000126007
4.07927e-05
2.43263e-05
0.000117619
-7.49808e-06
6.64266e-05
-0.0001827
-1.10205e-05
-0.000116789
-5.031e-05
0.000113211
9.38511e-05
7.1103e-06
-1.07265e-06
-0.000114282
1.30755e-05
-9.59645e-05
-0.000187829
-1.47215e-05
0.000141969
-0.000105542
-2.11766e-05
0.000159347
-6.05978e-05
-0.000104909
-0.000191295
-3.15242e-05
2.67865e-05
-8.83372e-05
2.81922e-05
6.03013e-05
-2.11122e-05
-0.000153984
-6.70971e-06
-0.000122243
-5.28991e-05
-0.000213783
8.63422e-05
2.43848e-05
1.32946e-06
-1.46831e-05
-4.76753e-05
0.000114568
-3.24089e-05
-5.61227e-06
-1.9861e-05
-3.69209e-05
-3.48256e-06
-0.000116265
-5.2555e-05
-1.27126e-06
-2.64919e-05
-0.000104853
-3.60251e-05
8.13336e-05
-0.000105781
-0.000144954
7.52909e-05
4.11217e-05
-2.63746e-05
3.98704e-05
-9.31581e-05
4.86262e-05
8.56235e-07
4.31901e-06
-0.000119127
-7.30149e-05
6.05755e-05
2.74996e-05
-0.000101009
6.03885e-05
-2.35748e-05
-0.000135273
-4.4459e-06
1.76308e-05
-0.000143069
5.91769e-05
-6.20401e-06
4.06068e-05
8.06637e-05
-7.99196e-05
3.64548e-05
-5.82088e-05
-9.32289e-06
5.90808e-05
4.19954e-05
3.69134e-05
-4.19621e-05
-5.43672e-05
3.41017e-05
-4.67338e-05
-0.0001537
-6.71793e-05
6.00318e-05
-4.68123e-05
-3.43903e-05
-8.82398e-05
4.55751e-05
-0.000176053
1.12818e-05
-0.00015407
-0.000127911
-9.4763e-05
-6.21465e-05
-4.80893e-05
5.24876e-05
-3.3679e-06
-0.000122984
4.30986e-05
-0.000154295
6.53998e-05
-0.00010901
-7.15228e-05
-5.46532e-05
0.000123682
-2.6908e-05
3.08176e-05
-0.000163153
0.000118408
-4.6212e-05
-0.000235137
-5.79352e-05
-7.17842e-05
-0.000163478
5.96771e-05
1.61469e-05
-7.24094e-05
2.98852e-05
-4.80522e-05
-4.58627e-05
-7.19619e-05
-3.38639e-05
-0.000109087
7.3949e-05
9.90359e-05
3.75025e-05
8.90729e-05
1.56949e-05
-6.02782e-05
2.84293e-05
-7.58182e-05
-6.37143e-05
0.000168836
-6.88592e-05
-0.000162257
2.27817e-05
1.59431e-06
-7.4554e-05
-0.000121428
-1.77673e-06
-0.000190662
0.00010786
0.000110056
-2.80036e-05
-1.88083e-05
-0.000179983
-8.35259e-05
9.67801e-05
8.11333e-06
6.51634e-05
0.000115118
-8.75528e-05
-5.66703e-05
4.48854e-05
-0.000137128
-9.15059e-05
-0.000117078
7.77817e-05
-6.1632e-05
-7.80418e-05
-4.38612e-05
6.10386e-05
-0.000105036
5.42323e-05
3.28154e-05
8.62766e-05
-5.37978e-05
-4.0635e-05
1.56851e-05
-4.02806e-05
-0.00021114
2.38112e-05
0.000203274
-1.50743e-05
4.13626e-05
-8.679e-05
-6.52754e-05
3.89041e-05
-0.000102638
1.51229e-05
-4.97354e-05
-2.76987e-05
2.26521e-05
-3.52248e-05
-0.000176034
-0.000125343
-3.13104e-05
-3.65661e-07
-0.000170566
-4.75533e-05
-5.78199e-05
-0.000183783
-2.11977e-05
5.88744e-05
5.74091e-06
-3.58101e-05
-5.21971e-06
-8.06736e-05
-0.000193738
-0.000104422
-3.91721e-05
4.23496e-05
-9.05204e-05
-7.6201e-05
-8.52789e-06
0.000146161
-0.000152342
-5.9685e-05
9.52006e-05
-0.000116926
9.23367e-05
-9.78985e-05
-1.47193e-05
0.000151847
2.37791e-05
-7.93701e-05
-2.8291e-05
-1.92882e-05
-2.44335e-05
-0.000142312
0.00010553
4.18108e-05
1.36641e-05
-1.15987e-05
-2.04688e-05
-2.06055e-07
-1.97632e-05
2.11206e-05
0.000109334
-0.000261438
4.285e-05
4.00642e-05
-7.66995e-05
-6.17969e-05
-1.02727e-05
-0.000159574
-8.18927e-05
7.35668e-05
-4.22974e-05
9.23162e-06
-1.98812e-05
9.94618e-06
-8.8755e-07
-5.61636e-05
-3.9956e-05
-5.35058e-05
-0.000102719
9.00065e-05
-0.000219845
-0.000120905
-5.90216e-05
4.97606e-05
-3.80761e-05
-1.36702e-05
-2.83052e-06
-8.34803e-05
1.19549e-05
-7.01743e-05
-3.17387e-05
1.34766e-05
5.83426e-05
-0.000137647
-8.99408e-05
0.000151386
1.51164e-05
-6.14137e-06
-0.000129065
3.11774e-05
0.000173843
-0.000137103
4.43446e-05
0.000100966
9.51381e-06
9.34233e-06
4.56317e-05
-4.53005e-05
0.0002318
-1.6591e-05
-9.65687e-05
0.000247102
-6.24578e-05
-9.62123e-05
4.4167e-05
-6.78146e-05
-9.39944e-05
-3.89072e-05
6.94158e-05
5.60174e-05
3.48887e-05
-0.000183194
5.50053e-05
9.55168e-05
2.66572e-05
-3.39593e-05
0.000120548
5.0033e-06
-7.52767e-05
0.000127642
-7.99592e-05
-8.11338e-05
-0.000202427
6.17068e-05
-9.95564e-05
-5.4323e-05
-5.94814e-05
-9.60131e-05
0.000116062
-0.000147445
1.14925e-05
-7.43307e-05
0.000155804
7.66396e-05
-6.99932e-05
7.3711e-05
-2.04374e-05
-8.95964e-05
9.62397e-05
-3.38338e-05
-3.49063e-05
4.17582e-05
0.000162895
3.63595e-05
8.77914e-05
-3.58358e-05
-2.2058e-05
-3.02284e-06
-1.37129e-05
3.0427e-05
5.1284e-05
-1.66402e-05
-6.6419e-05
-0.000106226
-3.41019e-05
-0.000114615
-1.21306e-05
2.69826e-05
0.000152796
4.25637e-05
-6.6248e-05
1.30306e-05
0.000125127
-3.36292e-05
0.000125025
-3.74264e-05
-0.000105816
-9.70294e-05
0.000180478
2.01134e-05
3.31975e-05
4.16909e-05
0.000125363
-0.000130524
0.000146989
3.85048e-05
-9.22035e-05
-5.52763e-06
-2.88953e-05
-7.75096e-05
-0.00016559
-6.21098e-05
8.73231e-05
0.00013541
-5.54551e-05
8.27905e-05
8.54186e-05
0.000115635
-8.62869e-05
4.55803e-05
0.000119125
0.00018409
2.40561e-06
0.00013716
5.34616e-05
5.22614e-05
5.6846e-05
0.000167474
-5.51223e-05
-1.33796e-05
-4.05208e-05
-0.00012564
6.85597e-05
-1.32681e-05
3.22426e-05
-2.875e-05
-4.65668e-05
-8.7483e-05
-7.05923e-05
7.68008e-05
-9.85496e-05
4.49249e-05
-7.86618e-05
9.82094e-05
-0.000145105
-0.000182992
0.000104832
-1.31571e-05
-7.55031e-05
0.000210964
-6.38559e-05
8.74358e-05
0.000118602
-0.000142687
0.0001534
0.000188841
-0.000133898
-3.0449e-05
-8.05344e-05
-1.98926e-05
-2.80353e-05
5.00241e-05
-0.000123372
-0.000185927
2.17025e-05
2.22618e-05
-4.22015e-05
8.28358e-05
-0.000114716
-1.4395e-05
-3.40614e-05
-0.00010146
3.65765e-05
-5.14569e-05
0.000108134
-1.3863e-05
-8.48665e-05
1.70891e-05
0.000166329
4.82555e-05
-0.000137475
-0.000130724
-9.48517e-06
4.53356e-05
-0.000128978
5.08628e-05
1.61453e-05
-0.000157478
0.000116752
-5.86526e-05
-9.88669e-06
2.70251e-05
5.98142e-05
5.88679e-05
7.47682e-05
-2.03857e-05
6.78021e-05
-9.19696e-05
-5.69096e-06
-0.000144547
0.00017434
-1.03798e-05
-3.0396e-06
3.54419e-05
7.37598e-05
5.43422e-05
-7.24929e-05
-4.3993e-05
-3.6134e-05
2.63089e-05
0.000149056
6.77117e-05
-0.000108175
2.75206e-07
-0.000102251
0.000191155
-4.92902e-07
2.48824e-05
1.41296e-05
-5.52989e-05
-0.000112945
1.64517e-05
5.99886e-05
-0.000104574
-2.01636e-05
-2.06161e-05
-2.06791e-05
2.71753e-05
3.29525e-05
9.95214e-05
-4.5678e-05
-3.40259e-06
3.48251e-05
5.44946e-05
4.12611e-05
0.000162434
-7.54967e-05
-7.04988e-05
-8.70554e-07
0.000148986
8.32418e-05
6.13602e-05
7.6048e-05
-1.61114e-05
-8.15582e-06
0.000102876
4.52769e-05
3.04938e-06
1.02988e-05
9.89585e-05
-6.89171e-05
3.381e-05
7.086e-05
-5.00828e-05
-0.000160351
2.85003e-05
-3.94695e-05
0.000187725
0.000159625
2.64985e-05
9.43406e-05
4.62711e-05
5.01354e-06
-5.53299e-06
0.00016653
-0.000108887
6.76434e-05
7.9785e-05
2.64233e-05
-3.33132e-05
-3.69875e-05
0.000154182
-0.000138619
-8.34804e-05
3.13437e-05
1.95624e-06
7.74232e-05
-8.67886e-05
-0.000106185
0.000124943
-3.2715e-06
3.75246e-05
9.61652e-05
-6.26923e-05
0.00019247
1.74856e-07
-0.000103403
-1.46433e-05
-7.02795e-05
0.000126966
-4.42553e-05
-3.12371e-05
-6.08348e-05
0.000185488
6.59435e-06
-2.88456e-05
2.55718e-06
-4.19508e-05
2.88809e-05
-7.87321e-05
-0.000245336
-4.55708e-06
1.4191e-06
-2.96712e-05
-0.000100693
6.97651e-05
9.95682e-05
2.10071e-05
9.20029e-05
0.000134083
6.70773e-06
-3.21714e-05
-1.05816e-05
0.000141856
-7.66034e-05
-3.02675e-05
-9.20397e-05
-5.64925e-05
-6.99648e-05
-1.04227e-06
-3.12678e-05
-1.03466e-05
-1.91769e-05
6.47351e-06
-1.19123e-05
1.18997e-05
-0.00012422
-0.000133447
2.95367e-05
2.01783e-05
7.01149e-05
-6.80157e-05
0.000112858
-5.64298e-05
-0.000102792
3.18146e-05
9.65791e-05
0.000142975
-0.00021521
-2.51569e-05
0.000155176
-7.08783e-05
-1.83482e-06
-9.00578e-05
-6.12383e-05
3.06268e-05
-2.73804e-05
0.000121418
-7.09156e-06
-0.00013656
5.42093e-05
-8.18376e-06
-8.82488e-05
-4.20772e-06
6.04568e-05
1.07253e-06
-0.000111191
-8.29691e-05
-0.000135972
-2.61219e-05
7.20012e-05
-0.000131596
2.96029e-05
2.28285e-05
-6.37443e-05
0.00025458
-1.29702e-05
-0.000103429
-5.66971e-05
-0.000126446
-7.45105e-06
9.49727e-05
-0.000134313
2.4123e-05
-7.84069e-05
9.7584e-05
3.62006e-05
9.45161e-05
2.15506e-05
-2.0613e-05
-3.88104e-05
-0.000148646
0.000226775
9.63688e-05
-7.63239e-05
2.87788e-05
8.77602e-05
-8.39329e-05
-2.85241e-05
0.00010019
-0.000145643
7.67788e-05
4.41059e-05
6.33273e-05
3.54638e-05
-4.70194e-05
6.01051e-05
0.000238689
-1.13721e-05
1.32809e-05
4.61284e-05
9.35646e-05
0.000111443
6.894e-05
4.29256e-05
5.71765e-05
-0.000123357
-2.57511e-05
2.09782e-05
-7.54534e-05
-5.30499e-05
3.71726e-06
-4.13263e-05
0.000107549
-7.41155e-05
-8.38635e-05
3.15662e-05
-0.000155529
-4.05882e-06
8.19246e-05
7.88569e-05
8.92137e-06
-0.000158251
0.000104388
6.37079e-05
-9.68607e-05
8.46968e-06
-2.26418e-05
2.02246e-05
-5.80794e-05
-4.53766e-05
-0.000111839
-1.58468e-05
4.6669e-05
8.89611e-06
1.84812e-05
0.000207151
1.02582e-05
3.13811e-05
0.000133191
4.81962e-05
4.80294e-05
4.55598e-05
2.47976e-05
0.000182448
-2.09907e-05
-5.10678e-05
-0.000165661
-1.12364e-05
1.81829e-05
-8.31881e-05
-4.87245e-05
-7.17316e-06
6.01658e-06
-7.74849e-05
6.14964e-05
8.30106e-05
5.09622e-05
-9.22265e-06
-1.73697e-05
4.8615e-06
0.000144274
-9.19838e-05
-0.000114029
-6.52784e-05
-1.09927e-05
8.56706e-05
-5.85103e-07
-1.54506e-05
0.000174422
0.000100694
-6.32093e-05
-0.0001399
1.76426e-05
-7.06059e-05
3.54812e-05
-0.000141505
8.52e-05
7.95142e-05
-0.000127984
1.78964e-05
4.63218e-05
0.000139068
-4.06979e-05
-0.000219237
1.18931e-05
6.91264e-05
0.000103412
3.01388e-05
1.81203e-05
-8.48225e-05
-2.77942e-05
-3.61354e-05
-4.22501e-05
2.46973e-05
-0.000103875
-0.000121247
-1.83884e-05
-5.68033e-05
-0.000118191
-0.000102747
9.25113e-05
2.27749e-05
1.13462e-05
-0.000100635
-2.48381e-05
-9.26367e-05
3.89391e-05
5.67283e-05
-3.55968e-05
7.58737e-05
0.000112991
2.82428e-05
-6.06357e-05
1.33613e-05
-4.06096e-05
-1.77703e-05
8.73167e-05
-0.000233145
-0.000133023
0.000155851
-4.31321e-05
-1.50562e-05
-9.80112e-06
-1.25052e-05
3.95529e-05
-6.4272e-05
3.49223e-06
-0.000116738
-9.34419e-06
2.47869e-05
7.48527e-05
-0.000201997
-7.66095e-05
5.21201e-05
6.2141e-05
-2.86256e-05
-7.18141e-05
-8.0175e-05
-4.28613e-05
9.60927e-06
-5.67319e-05
-7.19775e-05
-4.84589e-05
1.45549e-05
0.000141873
0.000127031
1.97324e-06
9.00916e-05
5.61432e-05
-0.00016535
3.27241e-05
-6.42661e-05
9.19828e-05
-1.09908e-06
0.000159574
-1.11898e-05
-3.98195e-05
0.000106628
2.95396e-05
0.000145453
-0.000168276
-0.000103097
-5.23592e-05
4.49701e-06
2.28104e-06
6.18848e-05
-3.49614e-05
-0.000110267
8.19855e-05
-8.72052e-05
0.000166318
-0.000134453
4.82145e-05
-8.84791e-06
-3.29851e-06
7.4273e-05
-5.85737e-05
3.09367e-05
5.61937e-07
-9.50587e-05
6.60253e-05
-2.82368e-05
-8.41329e-05
-6.0437e-05
5.38502e-05
0.00025675
-0.000159861
2.50966e-05
3.67751e-05
-2.15388e-05
7.59184e-05
-7.97821e-05
0.000149188
-0.000147422
7.61395e-05
-3.72763e-05
2.41607e-05
-6.29663e-05
-3.29042e-05
1.48162e-05
-4.53121e-05
-8.09515e-05
-7.09493e-05
0.000223434
-8.89186e-05
-7.10954e-05
5.09382e-05
-0.000254144
2.66449e-05
0.000193971
1.42027e-08
6.41407e-05
-9.98836e-05
3.32812e-05
4.92508e-05
4.34159e-05
-0.000144352
7.0425e-05
-1.6971e-06
-0.0001046
-6.9966e-05
-2.57336e-06
3.46662e-06
0.000126863
-8.41728e-05
0.00011235
-7.54232e-06
7.81054e-06
-0.000189092
2.34595e-05
-8.62777e-06
-0.000121178
-2.05017e-05
-6.07874e-06
5.29641e-05
-0.000192091
-9.772e-05
-8.92789e-07
-9.43674e-06
-0.000140862
1.41963e-05
0.000150769
-2.41941e-05
-5.04706e-05
-0.000102182
-7.32188e-05
4.0008e-05
-8.40148e-05
-2.62016e-06
7.21652e-05
-5.01587e-06
-0.000208037
-5.41105e-05
5.78299e-05
3.01236e-06
-0.000111919
6.54045e-06
-5.46849e-05
-5.08743e-05
-0.000133589
3.31153e-05
-4.74032e-06
-5.78379e-05
1.08758e-05
-4.19097e-05
-7.33046e-05
-5.93823e-05
-6.37663e-05
-7.91909e-05
0.000179464
1.7667e-05
2.4175e-05
4.90126e-05
9.09169e-05
1.51541e-05
2.98348e-05
0.00012313
-3.18815e-05
-5.28046e-05
4.12741e-05
-3.4127e-05
3.48028e-05
5.96382e-05
4.79469e-05
4.51222e-05
-8.75881e-05
-0.000116376
0.000112258
0.000105033
5.79011e-05
-5.89764e-05
-0.000101084
-4.49347e-05
1.3578e-05
-8.03012e-05
-7.24143e-05
-5.80534e-05
-8.03918e-06
8.582e-05
4.4225e-05
1.96768e-05
6.93058e-05
-1.14446e-05
4.66335e-05
0.000114619
6.39142e-05
2.45426e-05
1.20528e-05
-3.64089e-05
0.000183935
-4.00506e-05
-9.58396e-05
-7.97367e-05
-6.42384e-05
0.000156117
-6.36358e-05
-2.02827e-05
4.17326e-06
-4.45124e-05
7.46368e-05
4.88353e-05
-3.63686e-05
-0.000136864
2.26917e-05
8.50558e-05
-0.000120948
5.872e-05
8.04805e-05
0.000141268
-9.61536e-05
-4.66128e-05
9.01544e-06
9.69367e-06
-7.78127e-05
-0.000100693
-1.29172e-05
-5.87937e-05
0.000103821
-6.09952e-05
8.94499e-05
9.45113e-05
-0.000128505
-4.9494e-05
-4.36888e-05
-7.08308e-05
-0.000152903
8.99588e-05
3.93854e-05
-3.44e-05
8.36035e-05
-8.62689e-05
1.90388e-05
0.000105029
6.92387e-05
-0.00015256
-1.11224e-05
1.29407e-05
-3.59836e-05
-0.000109607
-9.22428e-06
4.9961e-05
-0.000108295
-2.22261e-05
0.000162948
-3.69203e-05
-8.13963e-05
7.08317e-05
7.32478e-05
-0.000151625
1.86784e-05
-8.27657e-05
0.000149286
0.00020864
-8.35503e-05
0.000200181
-0.000120059
-1.88105e-05
6.65954e-05
2.4403e-05
3.5802e-05
-2.18055e-05
2.20283e-05
9.15898e-06
-1.01889e-05
7.73014e-05
0.000114986
0.000149647
-0.00023387
-7.64143e-05
-7.8882e-05
-9.34931e-05
-2.89036e-05
-6.385e-05
-1.02567e-05
6.80245e-05
8.09906e-05
-9.77293e-05
-4.77608e-05
2.20694e-05
-9.07236e-06
-7.34442e-05
-2.47918e-05
-5.54185e-05
-0.000158401
-0.000131674
-0.000131402
0.000161567
-3.50317e-06
0.000106311
6.27388e-05
8.72299e-05
2.11269e-05
-3.42304e-05
6.97586e-05
-0.000100716
-5.44622e-05
3.59348e-05
0.000133589
-0.000108585
-3.32653e-05
3.54217e-05
1.38134e-05
0.000106503
3.69296e-05
-6.15644e-05
1.43028e-06
3.04088e-06
-1.18788e-05
4.29846e-05
-0.000108531
5.92814e-05
-7.51624e-06
-9.04321e-05
0.00014192
-2.30523e-05
6.78923e-06
3.79233e-05
-0.000152062
4.06217e-05
5.02766e-05
0.000112594
0.000128137
-0.000125756
1.05313e-05
-5.0927e-05
2.98412e-05
2.57913e-05
-8.11839e-05
0.000115301
6.59632e-05
6.76945e-05
-0.000130827
-0.00011262
0.000101887
1.27102e-06
4.53306e-05
-8.13749e-05
-5.44183e-05
1.97913e-05
0.000133827
-0.000102773
2.49998e-05
2.97732e-05
-0.000129572
0.000129191
0.000223765
-9.91627e-05
3.28555e-05
-1.16026e-05
-8.31765e-05
-9.07924e-05
0.000253356
5.3545e-05
8.99077e-05
-1.28832e-05
1.56285e-05
-1.3513e-05
-6.94772e-05
0.000116717
6.96396e-07
-0.000128637
9.77189e-05
-3.59081e-05
7.80565e-06
-3.26324e-05
2.09012e-06
-0.000176927
3.63814e-05
8.55343e-05
3.70888e-06
-5.72653e-05
-6.51206e-05
3.48394e-05
7.9312e-05
-2.30514e-05
-9.24054e-05
0.000148317
2.08892e-05
-0.000112436
-1.74879e-06
2.79101e-05
0.000137689
2.49797e-05
9.28806e-05
-7.9181e-05
-3.03593e-05
-2.91761e-05
-9.09549e-05
2.60478e-05
5.78001e-05
-3.75831e-05
-1.97821e-05
0.000156924
1.18949e-05
-4.09653e-05
-4.77955e-06
6.18375e-05
3.51772e-05
-7.29744e-05
2.94537e-05
-4.75405e-05
-0.000199166
-5.49511e-05
0.000113419
1.65842e-05
0.000119959
-4.95459e-05
-5.48703e-05
-4.40069e-05
-0.00013232
-1.10683e-05
-3.26023e-05
2.95193e-05
-6.70105e-05
-5.68004e-05
4.4258e-05
0.000101565
-3.7558e-05
6.88521e-05
2.77115e-05
-1.84723e-05
6.68026e-06
2.38263e-05
-5.53913e-05
-4.54455e-05
-0.000216462
-2.11401e-05
-1.80781e-06
-2.24023e-05
-1.20923e-05
0.00010017
-2.95335e-05
-7.85101e-05
-5.64097e-05
3.54524e-05
-0.000122102
2.53565e-05
-5.15473e-05
-4.73844e-05
-0.000177943
9.91323e-05
-2.02775e-05
-9.05284e-05
-0.000160802
3.1586e-05
2.08626e-05
0.000123532
2.61996e-05
0.000129311
0.000128507
-0.000103172
0.000114865
-0.000114434
-0.000105037
8.21953e-05
2.43471e-06
-7.25682e-05
7.05037e-05
-7.8639e-05
6.73989e-05
-0.00012797
-0.000100283
-0.000118212
-7.9014e-05
0.000137715
0.000141568
9.92953e-06
7.1906e-05
0.00010033
2.52509e-05
1.47452e-06
8.82391e-05
5.75717e-05
-6.24529e-05
8.51983e-05
-0.000157947
1.81688e-05
-3.88618e-06
4.89352e-05
4.22923e-05
-0.000100305
-1.68756e-06
-1.68703e-05
0.000236002
-3.15239e-05
0.000154999
8.43902e-05
-0.00017859
-0.000125187
8.14854e-05
0.000228193
9.75173e-05
5.02658e-06
-2.937e-05
-2.13406e-05
-8.04628e-06
0.000111529
1.98372e-07
1.47171e-05
2.26222e-05
-5.0562e-05
-1.86263e-05
-9.56482e-05
1.27172e-05
-6.36955e-06
-4.83734e-05
-0.000162495
-0.000150669
-0.000123185
-0.000130301
-0.000143541
2.76942e-05
-1.19654e-05
2.78475e-05
9.66766e-05
-0.000155889
-2.90857e-05
4.30578e-05
5.52199e-05
5.57832e-05
-7.19581e-05
8.21799e-05
3.17995e-05
-1.61431e-05
0.000118334
-3.50527e-05
6.98172e-05
5.22407e-05
-7.46013e-05
0.000128429
6.87916e-05
5.3709e-05
0.000164081
-6.81053e-06
5.2911e-05
6.07583e-05
0.00010507
-3.679e-05
6.41251e-05
3.23206e-05
1.73881e-05
-6.47982e-05
3.52539e-05
-5.44684e-06
-5.82708e-05
1.32605e-05
7.89599e-06
3.92064e-06
-6.19176e-05
-0.000115362
0.000189382
-7.03003e-05
3.24495e-05
-1.29216e-05
1.29632e-05
3.50395e-05
-3.8476e-05
-0.000227834
1.54447e-05
6.68492e-05
0.000208984
-0.000137775
-0.000119737
3.37942e-06
-6.67848e-05
5.28106e-05
0.000212002
-5.04095e-05
4.52355e-05
6.23978e-05
6.92601e-06
3.33386e-05
-6.37036e-05
-0.000141852
-8.25959e-05
-2.83278e-05
6.21288e-05
7.06128e-05
-5.41138e-05
7.35444e-05
-7.91082e-05
-5.05357e-05
-4.26952e-05
-7.86115e-05
0.0001346
8.86421e-06
2.62016e-06
-3.53691e-05
-5.94265e-05
3.82782e-05
0.000139264
3.07462e-05
7.92183e-06
-4.54562e-05
9.66463e-05
-7.32996e-05
5.74486e-06
0.000131036
-4.60168e-05
6.88419e-05
1.54729e-05
-8.83692e-05
-5.20663e-05
1.93805e-05
-2.46967e-05
-0.000105774
5.53712e-05
8.18245e-05
-1.16585e-05
7.75495e-05
-7.53808e-05
1.98963e-05
-6.55057e-05
8.65611e-05
-3.59192e-05
3.04582e-05
-5.88946e-05
9.53092e-06
8.25463e-05
7.46219e-05
0.000122709
-5.17649e-05
-0.000140594
0.00019018
9.21043e-06
3.64252e-05
9.16629e-05
-3.47004e-05
4.36619e-05
3.07761e-05
-0.000150938
-8.95238e-05
0.000129958
-3.13127e-05
-7.87966e-05
6.66198e-06
-1.89373e-06
5.44356e-05
-0.00015793
6.44326e-05
4.38944e-06
3.60436e-05
-2.89259e-05
8.61723e-05
-1.95212e-05
0.000125604
-4.93162e-05
-0.000227412
-8.44891e-05
5.98046e-05
9.87017e-05
1.23554e-05
-5.95484e-05
-9.38495e-05
-3.79898e-06
9.86224e-06
2.55557e-05
-2.09045e-05
5.29063e-05
0.000165624
1.71978e-05
-1.62059e-05
8.63128e-05
9.68995e-05
0.00013841
-7.13131e-05
-9.83444e-05
-0.000187773
5.00736e-05
-0.000108281
-4.20373e-05
5.10593e-05
-1.11758e-05
-0.000140329
-4.61565e-05
9.76488e-05
1.93319e-06
0.000108967
-0.000172523
9.25385e-06
-0.000121084
-5.38619e-05
0.000162285
6.13234e-05
-2.99658e-05
7.61807e-05
0.000115906
-6.37936e-05
3.29333e-05
2.14527e-05
-4.11307e-06
5.7527e-05
2.30669e-05
2.59969e-05
-0.000109766
-5.54881e-05
-8.3833e-06
2.87625e-05
9.90406e-05
-4.36301e-05
1.81705e-05
-0.000169497
6.91153e-05
0.000129829
-9.32175e-05
-1.71873e-05
-6.78557e-05
-1.37765e-05
-2.547e-05
4.15125e-05
2.24673e-05
-9.06689e-05
2.38931e-06
2.23622e-05
-1.01802e-05
-2.06262e-05
8.91825e-05
-1.04995e-06
-7.01814e-05
6.77123e-05
-0.000114378
0.000177749
6.07079e-05
-6.39324e-05
-4.53338e-05
-9.1569e-05
5.09657e-05
0.000144512
3.63786e-06
9.3159e-06
-4.96007e-05
-2.26527e-05
-0.000135984
6.17018e-05
-8.23098e-05
-2.61457e-05
6.40769e-05
-3.31923e-05
3.07764e-05
8.76576e-05
-0.000151892
-5.1677e-05
1.66293e-05
-6.09267e-05
-0.000119047
6.81184e-05
1.12382e-05
-9.24396e-06
-5.5396e-05
0.000118444
-2.72861e-05
-0.000138147
4.6102e-05
4.37291e-06
3.15572e-05
-5.2243e-05
-7.02608e-05
5.66064e-05
0.000132814
0.000165443
0.00012442
5.91399e-05
-9.19704e-05
1.8168e-05
6.40959e-06
8.71532e-05
4.34435e-05
8.68463e-05
-6.832e-05
2.92052e-05
-3.11064e-05
2.90948e-05
7.03543e-05
-7.91653e-05
0.000121496
1.46349e-05
-3.86849e-05
-5.53838e-05
-9.60239e-05
0.000150604
4.09504e-05
-7.54481e-05
-6.59034e-05
3.99819e-05
-3.86502e-05
0.000112858
-0.000197858
4.93145e-05
-6.38689e-05
-1.77039e-05
-2.65979e-05
-0.000101566
-1.84751e-05
-3.32671e-05
-1.24197e-05
-1.43063e-05
2.11503e-06
-3.65272e-05
2.22867e-05
-5.77039e-05
0.000197708
-0.000151494
-5.89496e-05
0.000137779
2.68316e-05
-9.80289e-05
-0.000124932
3.11428e-05
-1.91443e-05
1.89804e-06
9.94831e-05
0.00023289
7.02442e-05
-0.000154902
-8.72561e-05
0.000162866
4.77838e-06
-3.19083e-06
2.80287e-05
5.15266e-05
2.49974e-05
0.000113019
-0.00010313
6.42869e-06
-6.80701e-05
5.21252e-05
9.98093e-05
3.75337e-05
-1.25123e-05
2.78677e-05
-0.000175121
-3.98161e-05
0.000127756
5.71285e-06
-4.7381e-06
2.42183e-05
-0.000104495
-2.66079e-06
-0.000126256
-6.13288e-05
4.57135e-05
-2.78159e-05
7.8863e-05
0.000187593
0.000142462
-7.18025e-05
3.68709e-05
-7.9971e-05
-9.76786e-05
8.35124e-05
-7.66612e-05
1.73708e-05
3.88214e-05
3.7634e-05
-6.60974e-05
-4.90416e-05
-7.54895e-06
-0.000157611
7.44854e-05
0.000110231
0.000165342
-0.000116038
5.68125e-05
2.02925e-05
-4.26091e-05
4.47265e-05
-3.47781e-05
-3.89838e-05
-7.47691e-05
4.80472e-05
9.04496e-05
-5.58114e-05
-1.13853e-05
3.436e-06
0.000201405
-5.24538e-05
6.9471e-05
-1.13575e-06
-8.97852e-05
6.2125e-06
-1.40304e-05
-5.95949e-05
3.46325e-05
0.000132578
-3.57156e-05
3.04382e-05
0.000111536
1.88511e-05
-1.74165e-05
-4.32116e-05
-1.18212e-05
-1.31852e-06
2.33712e-05
-2.01712e-05
-7.93705e-05
0.000145506
1.79221e-05
-2.6303e-05
-3.20196e-05
7.61126e-05
-8.72638e-06
-0.000197837
-0.000123453
2.00717e-05
4.62919e-05
0.000133335
-1.32769e-05
2.91381e-05
4.53093e-05
-3.26463e-05
-4.05911e-05
0.000121259
6.09388e-05
1.83132e-05
-6.41078e-05
8.71446e-05
-3.52126e-05
-2.23265e-05
2.69904e-05
-0.000210486
0.000114812
-9.10566e-05
0.00014374
1.79429e-05
1.02345e-05
-2.47064e-05
8.52564e-05
0.000171645
-1.39987e-05
-7.11628e-05
-7.28318e-05
5.84442e-05
5.29925e-05
6.56092e-05
-9.69053e-05
-1.35745e-05
0.000129801
0.000239295
-4.43279e-05
3.97889e-05
-1.95485e-05
9.60263e-05
-3.60287e-05
-0.000116182
-2.88163e-05
-4.16209e-05
0.000108468
7.31368e-06
2.43827e-05
-3.95868e-05
-9.52771e-05
0.000234467
8.88013e-05
5.22877e-05
7.4277e-05
6.16392e-05
-4.00967e-05
-8.55422e-05
-0.000195943
-9.6239e-05
-2.46789e-05
4.10397e-05
7.28231e-05
-1.15085e-05
0.000226808
0.000109816
-0.000132022
-9.46387e-06
7.56355e-05
-8.9485e-06
3.65067e-05
0.000156297
0.000201727
3.54773e-05
0.000154689
-1.79438e-05
9.59332e-05
9.93992e-05
-0.000144887
-0.000179458
-5.57553e-05
-0.000112794
4.62694e-05
9.80345e-06
-3.30921e-05
-6.0456e-05
4.98875e-06
6.3122e-05
-4.55343e-05
8.08998e-05
-4.53433e-05
-5.2786e-05
-3.14531e-06
-3.5705e-05
-9.53011e-06
-6.95034e-05
0.000112653
3.84293e-05
3.97174e-05
0.000118791
0.000150988
-1.51482e-05
-7.94134e-05
9.3492e-06
-0.0001943
9.04896e-06
0.000121528
0.000118377
1.48939e-05
-4.72448e-05
-0.000137435
9.47139e-05
7.65389e-05
2.43277e-05
-5.19559e-05
-9.07069e-05
-7.8403e-05
-0.00013318
0.000166111
0.000142646
-1.28017e-05
-6.76524e-06
6.35246e-05
-0.000160429
6.11541e-05
6.39411e-05
-4.49228e-05
-0.000135078
6.33207e-05
-1.6914e-06
7.03938e-05
-3.51376e-06
2.15793e-05
-9.5493e-05
4.59841e-08
3.93041e-06
-0.000138938
-4.66085e-05
-2.1399e-05
3.82513e-05
4.52865e-05
-5.11387e-05
-4.63859e-05
-3.81477e-05
-3.43004e-05
0.000192355
7.41847e-05
0.000221835
0.000152336
-0.000181402
7.71312e-05
-2.89921e-05
-3.52787e-05
-1.87601e-05
3.99153e-05
7.15947e-05
0.00011
-1.74606e-05
4.86125e-05
1.13272e-07
-2.96715e-05
-2.02563e-08
3.66986e-05
7.52398e-05
-6.67823e-05
-0.000120089
0.000114191
-8.3306e-05
0.000195564
-3.68104e-05
-4.9243e-05
-4.45824e-05
-6.72843e-05
-4.47988e-05
5.05158e-05
9.9953e-05
-0.000119873
-7.21822e-05
3.08804e-05
1.09177e-05
-6.43217e-05
-1.27677e-05
0.000136612
2.14311e-05
-8.01784e-05
0.000107602
-1.95263e-06
1.55651e-05
-0.000126493
-4.68823e-05
8.12865e-05
-2.08905e-05
-8.32626e-05
0.000186634
0.000197409
5.88672e-05
-0.000151034
-0.000109855
-0.000144196
-1.88316e-05
-2.3338e-05
9.07429e-05
0.000110765
8.37957e-07
0.000269336
6.35907e-06
-0.000178776
4.82055e-05
7.13626e-07
4.82181e-06
-7.97911e-05
-8.61996e-05
-1.99102e-05
-4.88926e-05
9.48091e-05
-7.23056e-07
0.000105487
-5.55778e-05
-3.2302e-05
-5.79795e-06
7.00367e-05
-2.66409e-05
5.87758e-06
2.30998e-05
-2.69379e-05
-3.54308e-05
0.000121423
-0.00019233
6.66259e-05
5.3349e-05
-3.13584e-05
-0.0001127
3.98427e-05
8.37331e-05
-0.000135248
-0.000129601
-3.1576e-05
-7.25349e-05
9.45909e-05
8.67738e-05
-0.000117805
-4.82253e-05
2.83634e-06
-0.00020758
2.65402e-05
0.000114954
2.77208e-06
-5.15222e-05
9.70062e-05
0.000128563
-5.79406e-05
4.13863e-05
8.4833e-05
-4.58403e-05
-9.13239e-05
0.000140747
2.60654e-05
-9.71524e-05
7.65484e-05
1.62693e-05
-0.000120145
-0.000104043
-4.2578e-05
0.000110974
2.52877e-05
-0.000134327
-6.40893e-05
0.00011688
5.98417e-05
-7.31113e-05
3.84436e-05
-2.63026e-05
-4.34951e-05
-9.02768e-05
2.12612e-05
-6.1458e-05
0.000181006
6.66186e-05
-0.000149219
-9.56701e-06
0.000104835
8.10272e-05
3.17444e-05
-2.58491e-05
-5.59181e-05
1.56061e-05
-4.15964e-05
4.94547e-05
-7.84514e-05
-0.0001203
1.88595e-05
3.4024e-05
-0.000102925
-9.41431e-05
-6.72648e-05
-2.0402e-05
-4.34602e-05
1.14385e-05
7.6998e-05
-0.000202481
-7.01321e-06
5.6959e-05
0.000138873
2.73646e-06
-1.34446e-05
0.000141717
-9.78194e-05
-1.75684e-05
-0.000114249
-4.51785e-06
0.000133411
-1.6374e-05
2.38852e-05
0.000114089
-1.51454e-05
5.78037e-06
-5.89268e-05
0.000106519
-0.000110708
6.32806e-05
0.000123234
-7.25347e-05
-4.84404e-06
4.0835e-05
-9.35444e-06
-0.00010567
-4.55792e-05
0.000124541
-6.0049e-05
-4.19326e-05
-0.000133913
-2.70046e-05
-2.51986e-05
5.4572e-06
-5.03508e-06
-7.6921e-05
6.50482e-06
0.000116325
0.000127374
0.000166731
-1.05561e-05
-0.000206479
0.000182522
7.48386e-05
-2.78921e-05
7.52544e-05
-4.91734e-05
-1.85492e-05
-1.14243e-05
3.40788e-05
-3.84295e-05
-7.33602e-05
8.69255e-05
6.50202e-05
-9.85952e-05
-5.78444e-06
-1.07904e-05
-5.80214e-05
-9.20605e-05
2.76715e-05
-8.15353e-05
-7.98195e-05
2.13586e-05
0.000112224
9.8411e-05
7.53229e-05
-0.000211937
0.000163681
-7.19714e-05
4.47978e-06
-3.96577e-05
5.87145e-05
3.47935e-05
3.47581e-05
2.9354e-05
4.70481e-06
5.54372e-05
-1.48639e-06
-0.000124396
-3.48373e-06
-5.07147e-05
-2.09999e-05
0.000129396
-2.92571e-05
2.0918e-05
-7.05543e-05
-0.000171928
-3.46855e-05
0.000154134
-4.65248e-05
0.000150401
-1.4069e-05
2.78039e-05
-4.51305e-05
9.3946e-06
0.000141183
3.29131e-05
-4.06126e-05
6.58381e-05
3.87592e-05
-2.93369e-05
-3.00346e-05
-5.72298e-06
6.48904e-05
-3.88515e-05
0.000130689
-4.96437e-05
7.59356e-05
-3.69509e-05
9.97784e-06
-6.46458e-05
3.62755e-05
-2.49827e-05
-3.81786e-05
1.75786e-05
-6.32816e-05
-6.81191e-05
7.20716e-05
-4.26061e-05
-4.93643e-05
-9.92035e-05
-0.000139118
9.75187e-05
-3.39868e-05
-0.000114887
-0.000112189
4.04847e-05
-2.15922e-05
-4.61726e-05
0.000109451
7.06451e-05
-4.02329e-05
6.59095e-05
-3.00459e-05
4.02905e-05
0.000171771
-0.000140593
-0.000213177
-5.79017e-05
-5.55313e-06
6.44499e-05
-0.000166967
8.32396e-05
7.4078e-05
-5.58048e-06
1.56963e-05
0.000152074
4.79016e-05
2.48025e-05
-1.09859e-05
-6.54357e-05
-9.80812e-05
-5.30047e-05
-2.28534e-05
0.000155693
6.3809e-05
4.59806e-05
-3.64109e-05
-0.000112674
-4.98451e-05
1.40644e-05
6.13148e-06
-2.2118e-05
3.62443e-05
6.27337e-05
2.96986e-05
7.35475e-05
-3.08981e-05
-8.75971e-05
1.02608e-06
0.000234073
-6.07657e-05
-8.99278e-05
4.31347e-05
9.36028e-05
4.04279e-05
-5.69934e-06
-7.08204e-05
-1.62121e-05
-8.73026e-05
-9.12342e-05
7.18248e-06