# vtk DataFile Version 1.0
Net Charge Density
ASCII
DATASET STRUCTURED_POINTS
DIMENSIONS 256 128 1
ORIGIN 0 0 0
SPACING 0.15625 0.15625 1
POINT_DATA 32768
SCALARS rhonet float
LOOKUP_TABLE default
-0.000115358
-0.000123421
-9.96823e-05
-6.69051e-05
-8.39738e-05
-7.3181e-05
-0.000134553
-8.69014e-05
-3.96693e-05
-0.000105924
-0.000102055
-0.000107217
-3.99698e-05
-5.49458e-05
-8.42702e-05
-3.49357e-05
-9.60296e-05
-9.67768e-05
-6.7458e-05
-4.33843e-05
-7.0673e-05
-7.96466e-05
-6.45382e-05
-6.63701e-05
-9.4537e-05
-0.000119926
-0.000139857
-0.000110811
-6.83581e-05
-5.83503e-05
-0.000123702
-0.00013635
-0.000109031
-6.52219e-05
-0.000139982
-4.37309e-05
-6.66458e-05
-5.8416e-05
-7.58911e-05
-7.66137e-05
-6.28116e-05
-7.72855e-05
-5.83487e-05
-4.6172e-05
-6.22856e-05
-8.21624e-05
-9.28741e-05
-9.57228e-05
-9.40914e-05
-4.70853e-05
-3.40379e-05
-5.08308e-05
-0.000102371
-7.78005e-05
-0.000128053
-5.41843e-05
-9.26564e-05
-4.04261e-05
-6.24563e-05
-5.57893e-05
-7.18105e-05
-6.08235e-05
-6.86959e-05
-2.39251e-05
-9.89107e-05
-3.27071e-05
-7.33648e-05
-2.03052e-05
-6.01504e-05
-5.65164e-05
-0.000115784
-6.01457e-05
-0.000103635
-5.94499e-05
-8.7317e-05
-1.65618e-05
-8.2071e-05
-9.132e-05
-5.94536e-05
-0.000115714
-0.000129305
-3.03732e-05
-5.39431e-05
-0.000108692
-9.20308e-05
-8.97659e-05
-0.000142613
-0.000121642
6.09545e-06
-2.83032e-05
-8.59347e-05
-7.97985e-05
-6.19531e-05
-9.14261e-05
-0.000117204
-8.12734e-05
-7.24605e-05
-0.000113498
-7.9834e-05
-5.29268e-05
-1.18474e-05
-7.95528e-05
-6.63076e-05
-9.05086e-05
-8.95758e-05
-0.000128568
-7.76051e-05
-7.10976e-05
-0.0001289
-0.000111001
-6.75782e-05
-6.19272e-05
-8.03562e-05
-7.77778e-05
-0.000124973
-8.48966e-05
-0.000113202
-6.59932e-05
-9.08497e-05
-0.000100179
-2.97268e-05
-7.37929e-05
-9.18953e-05
-8.58312e-05
-9.45491e-05
-4.52412e-05
-2.47474e-05
-7.62224e-05
-8.3381e-05
-4.36288e-05
-7.61033e-05
-0.000109404
-5.126e-05
-4.33696e-05
-7.10251e-05
-8.4386e-05
-9.33088e-05
-5.45303e-05
-9.45951e-05
-3.84038e-05
-6.28745e-05
-6.26386e-05
-8.54047e-05
-0.000104034
-0.000100226
-8.25883e-05
-6.53125e-05
-0.000102903
-5.17089e-05
-0.000108932
-6.81316e-05
-6.44809e-05
-7.2205e-05
-5.13197e-05
-9.97275e-05
-0.000100519
-6.85507e-05
-5.59509e-05
-0.000102734
-7.66384e-05
-4.2356e-05
-8.0635e-05
-5.19747e-05
-0.000110416
-1.21811e-05
-9.03934e-05
-3.39701e-05
-0.000112138
-8.8779e-05
-0.000134555
-0.000100789
-8.65692e-05
-9.25901e-05
-5.97062e-05
-6.33346e-05
-3.99094e-05
-4.62911e-05
-9.18018e-05
-7.60983e-05
-7.30894e-05
-6.88541e-05
-3.30564e-05
-0.000124657
-0.000145573
-0.000107362
-5.42287e-05
-3.71037e-06
-0.000124203
-8.12127e-05
-6.4083e-05
-5.87338e-05
-4.44732e-05
-9.01943e-05
-7.55847e-05
-9.20345e-05
-6.47812e-05
-8.47455e-05
-8.65492e-05
-3.09442e-05
-8.37135e-05
-5.19084e-05
-2.32284e-05
-4.86609e-05
-0.000100915
-0.000140126
-3.54441e-05
-5.62954e-05
-0.000132114
-0.000107438
-4.45956e-05
-3.81635e-05
-8.64358e-05
-8.84837e-05
-4.17223e-05
-8.71978e-05
-0.000123152
-9.59211e-05
-3.68261e-05
-4.91665e-05
-9.07494e-05
-0.000111757
-0.000111659
-3.59479e-05
-1.13596e-05
-7.0333e-05
-5.64773e-05
-7.26288e-05
-0.000103709
-4.54433e-05
-5.832e-05
-9.61861e-05
-7.44578e-05
-7.48885e-05
-5.21394e-05
-5.05956e-05
-7.62521e-05
-7.65631e-05
-0.000100752
-2.25535e-05
-5.76318e-05
-8.23401e-05
-8.08127e-05
-8.98437e-05
-0.000114277
-3.68622e-05
-5.49309e-05
-7.25534e-05
-3.00612e-05
-8.35415e-05
-8.8065e-05
-0.000104746
-6.23622e-05
-0.000116365
-4.48499e-05
-3.60661e-05
-6.21234e-05
-5.46131e-05
-1.28888e-05
-3.33945e-07
-1.43248e-05
-1.65185e-05
-5.0447e-05
-6.61071e-05
-6.65927e-05
-3.95574e-05
-8.97238e-05
-3.58722e-05
-5.99647e-05
-9.38181e-05
5.16834e-06
-6.05078e-05
-6.01402e-05
-7.98481e-05
-7.64148e-05
-5.54563e-05
-2.6699e-05
-8.27584e-05
-3.67234e-05
-4.90618e-05
-7.61711e-05
-5.41816e-05
-6.95992e-05
-4.58848e-05
-3.29507e-05
-7.22524e-05
-2.56763e-05
-8.39491e-05
-6.45652e-05
-7.71102e-05
-6.04802e-05
-7.29599e-05
-4.08291e-05
-3.2286e-06
-8.42672e-05
-2.81731e-05
-4.8997e-05
-3.88491e-05
-0.000119115
-5.45764e-05
-4.41888e-05
-4.1599e-05
-7.33388e-05
-5.3504e-05
-3.93681e-05
-7.91564e-05
-5.86593e-05
-5.37583e-05
-4.00845e-05
-9.11811e-05
-7.70297e-05
-8.01182e-05
-3.56828e-05
-7.08486e-05
-3.68033e-05
-9.04005e-05
-8.50474e-05
-5.36624e-05
-1.76672e-05
-2.55153e-05
-2.43869e-05
-4.89999e-05
-5.08267e-05
-8.7924e-05
-4.87076e-05
-1.80239e-05
-1.36168e-05
-5.73834e-05
-6.7515e-05
-7.39623e-05
-7.66634e-05
-6.89389e-05
-5.27651e-05
-5.35549e-05
-7.61876e-05
-5.72236e-05
-4.06289e-07
-7.80622e-05
-6.54488e-05
-3.60779e-05
-7.00366e-05
-3.64881e-05
-8.11812e-05
-4.18665e-05
-1.83723e-05
-4.73091e-05
-3.79043e-05
-3.39873e-05
-6.95508e-05
-2.99771e-05
-0.000111906
-5.34544e-05
-4.98665e-05
-7.50403e-05
-5.7608e-05
-4.34948e-05
-4.01911e-05
-2.21169e-05
-2.57278e-05
-4.50957e-05
-3.83178e-05
-1.64562e-05
-3.39168e-05
-2.69034e-05
-5.99096e-05
-7.07949e-05
-8.13295e-05
-6.00465e-05
-5.86434e-05
-6.74877e-05
-8.21973e-05
-8.39862e-05
-1.26873e-05
-4.36817e-05
-3.5429e-05
-5.5217e-05
-6.69767e-05
-5.68455e-05
-7.62359e-05
-6.70586e-05
-8.57975e-05
-3.6205e-05
-4.06416e-05
-8.38879e-05
-3.07944e-05
-2.1288e-05
-4.96081e-05
-6.37114e-05
-5.64887e-05
-7.363e-05
-8.14984e-05
-7.73661e-05
-7.4335e-05
-7.74935e-05
-4.23082e-05
-4.26389e-05
-4.70539e-05
-6.89198e-05
-6.61389e-05
-5.36882e-06
-7.06009e-05
-4.39507e-05
-5.91731e-05
6.97621e-06
-3.27512e-05
-2.83655e-05
-3.16096e-05
-4.47221e-05
-3.50899e-05
-7.51984e-05
-7.95677e-05
-5.00114e-05
-6.17369e-05
-3.16163e-05
-5.5145e-05
-2.748e-05
-2.83758e-05
-2.4896e-05
-1.64206e-05
-6.9652e-05
-3.12231e-05
-6.25584e-05
-8.33796e-05
-8.75639e-05
-8.86213e-05
-5.81183e-05
-0.000106664
-3.38721e-05
-8.874e-05
-5.32648e-05
-9.98727e-06
-1.72737e-05
-1.29843e-05
-7.81046e-05
-5.69528e-05
-6.13796e-05
-6.36578e-05
-4.14553e-05
-4.75869e-05
-6.15638e-05
-6.7665e-05
-7.28458e-05
-4.15029e-05
-5.31355e-05
-0.000108935
-7.11983e-05
-7.07685e-05
-6.72293e-05
-6.31885e-05
-7.49206e-05
-3.77584e-05
-5.60855e-05
-1.78458e-05
-4.95275e-05
-5.83633e-05
-3.62434e-05
-1.86911e-05
-4.56826e-05
-8.85784e-05
-4.41129e-05
-2.99971e-05
-4.85029e-05
-7.08911e-05
-2.14308e-05
-3.33728e-05
-4.65974e-05
-4.68665e-05
-6.92517e-05
-5.90316e-05
-4.95979e-05
-4.91433e-05
-5.38406e-05
-8.55689e-05
-5.74937e-05
-5.3752e-05
-5.81837e-05
-6.31898e-05
-6.28791e-05
-2.78602e-05
-4.2347e-05
-3.29339e-05
-2.67607e-05
-4.50634e-05
-2.88126e-05
-4.87241e-05
-7.92155e-05
-3.10746e-05
-5.81025e-05
-7.49985e-05
-3.66716e-05
-1.42949e-05
-5.38443e-05
-6.05061e-05
-2.45373e-05
-3.64367e-05
-7.48235e-05
-3.66704e-05
-6.91013e-05
-8.65709e-05
-2.48868e-05
-3.71873e-05
-1.05755e-05
-1.85385e-05
-2.33865e-05
-4.927e-05
-4.22303e-05
-9.30251e-05
-5.6171e-05
-5.73781e-05
-3.13218e-05
-3.96756e-05
-4.59379e-05
-6.18588e-05
-0.00010473
-6.00331e-05
-4.71891e-05
-8.1423e-05
-2.71495e-05
-4.04488e-05
-5.78131e-05
-2.94661e-05
-4.42178e-05
-5.48115e-05
-6.57311e-05
-8.23933e-05
-6.21868e-05
-6.93342e-05
-5.75757e-05
-7.40959e-06
-3.08342e-05
-2.12981e-05
-1.95686e-05
-1.03249e-05
-7.02432e-05
-4.53971e-05
-2.60873e-05
-8.65185e-05
-6.02681e-06
-5.64453e-05
-5.7696e-05
-5.54894e-05
-7.55844e-05
-6.18736e-05
-4.6152e-05
-4.96226e-05
-6.46681e-05
3.86725e-06
-3.60481e-05
-2.85153e-05
-4.15311e-05
-3.35457e-05
-4.33436e-05
-3.61081e-05
-4.08557e-05
-6.97315e-05
-5.28067e-05
-7.41977e-05
-2.47786e-05
-3.35782e-05
-6.88175e-05
-5.42285e-05
-5.0527e-05
-3.38695e-05
-6.20847e-05
-5.7448e-05
-4.90329e-05
-5.15494e-05
-5.78701e-05
-6.46321e-05
-5.62747e-05
-3.71091e-05
-9.31308e-05
-6.6902e-05
-3.7846e-05
-3.23909e-05
-7.83587e-05
-5.75684e-05
-2.7345e-05
-5.64488e-05
-4.6591e-05
-6.69527e-05
-5.38979e-05
-8.34237e-05
-5.50951e-05
-3.30715e-05
-2.27198e-06
-4.08053e-05
-3.16349e-05
-4.39803e-05
-3.89606e-05
-3.36004e-05
-4.36271e-05
-3.47438e-05
-3.94195e-05
-3.2874e-05
-3.49773e-05
-2.79332e-05
-2.86607e-05
-3.97108e-05
-6.46155e-05
-3.74925e-05
-6.75348e-05
-3.61493e-05
-3.8112e-05
-4.98477e-05
-1.48646e-05
-3.48471e-05
-2.10032e-05
-2.06805e-05
-8.56105e-05
-8.22071e-05
-8.90034e-05
-2.24909e-05
-6.44664e-05
-9.04382e-05
-2.1251e-05
-4.52991e-05
-3.48305e-05
-8.3221e-05
-6.96849e-05
-4.15391e-05
-2.58498e-05
-4.17943e-05
-5.08748e-05
-6.03223e-05
-3.70395e-05
-7.70952e-05
-5.31425e-05
-6.91552e-05
-8.0076e-05
-7.18566e-05
-4.25063e-05
-2.28838e-05
-0.000104008
-3.79771e-05
-5.09087e-05
-4.56234e-05
-4.97576e-05
-1.56903e-05
-5.92487e-05
-7.11326e-05
-7.74387e-05
-3.62537e-05
-2.8407e-05
-7.58758e-05
-8.22358e-05
-7.69807e-05
-1.26749e-05
-8.41508e-05
-4.11538e-05
-6.3812e-06
-2.1896e-05
-6.22006e-05
-1.66253e-05
-5.44611e-05
-5.56494e-05
-7.90504e-05
-3.47455e-05
-2.4485e-05
-5.39171e-05
-5.3143e-05
-6.07959e-05
-2.83263e-05
-5.06252e-05
-8.66896e-05
-9.90812e-05
-6.99042e-05
-9.03609e-05
-3.48318e-05
-7.6217e-05
-3.54785e-05
-3.95444e-05
-4.6369e-05
-2.88989e-05
-5.79627e-05
-6.27873e-05
-5.53676e-05
-3.5294e-05
-5.75913e-05
-8.48553e-05
-3.79768e-05
-4.22805e-05
-2.20205e-05
-9.12496e-05
-4.98828e-05
-5.55163e-05
-3.96555e-05
-7.59349e-05
-5.28618e-05
-4.33873e-05
-3.90348e-05
-0.000108793
-2.14601e-05
-1.27995e-05
-5.34167e-05
-6.17167e-05
-2.6162e-05
-4.12455e-05
-5.48566e-05
-0.000119963
-3.90695e-05
-2.49883e-05
-5.75759e-05
-4.5609e-05
-3.64023e-05
-3.46472e-05
-3.74995e-05
-4.96898e-05
-7.3664e-05
-4.77025e-05
-5.40059e-05
-5.71657e-05
-4.99734e-05
-3.62096e-05
-4.09772e-05
-7.5106e-05
-4.65445e-05
-2.11919e-05
-7.64413e-05
-3.57494e-05
-8.78236e-05
-4.63013e-05
-3.59836e-05
-3.801e-05
-4.90583e-05
-5.13317e-05
-7.04476e-05
-6.68994e-05
-4.00695e-05
-6.41542e-05
-3.53022e-05
-6.81905e-05
-7.0966e-05
-4.96373e-05
-5.01456e-05
-9.80176e-05
-3.86375e-05
-3.30692e-05
-4.22293e-05
-2.86994e-05
-6.54511e-05
-3.74863e-05
-6.82596e-05
-3.49354e-05
-5.44791e-05
-5.95171e-05
-5.06838e-05
-6.97857e-05
-3.5174e-05
-3.51901e-05
-2.89605e-05
-3.0165e-05
-4.25434e-05
-2.07021e-05
-4.13697e-05
-5.5285e-05
-5.47537e-05
-4.02317e-05
-2.41644e-05
-1.77718e-05
-5.56239e-05
-6.03452e-05
-6.11152e-05
-6.44813e-05
-5.22422e-05
-6.83842e-05
-4.74642e-05
-5.8419e-05
-3.10806e-05
-5.96082e-05
-6.49178e-05
-3.71985e-05
-4.09434e-05
-7.34975e-05
-7.39055e-05
-5.22049e-05
-3.12231e-05
-0.000113403
-5.16451e-05
-7.10393e-05
-1.67547e-05
-0.000120071
-3.82966e-05
-5.96082e-05
-6.87214e-05
-3.13253e-05
-6.99429e-05
-6.60329e-05
-3.99952e-05
-4.83278e-05
-7.18342e-05
-9.7527e-05
-3.41924e-05
-2.34492e-05
-2.13066e-05
-4.91304e-05
-5.70341e-05
-1.30748e-05
-3.84771e-05
-5.01281e-05
-2.13643e-05
-5.39036e-05
-3.54353e-05
-2.88886e-05
-1.97833e-05
-5.80424e-05
-6.81217e-05
-2.9039e-05
-6.17713e-05
-6.52987e-05
-2.8526e-05
-3.40244e-05
-3.91537e-05
-6.21028e-05
-7.5656e-05
-5.99368e-05
-8.23436e-05
-7.49941e-05
-5.07308e-05
-4.23115e-05
-9.56508e-05
-9.55358e-05
-7.23631e-05
-4.61787e-05
-7.20319e-05
-5.22082e-05
-1.22516e-05
-7.6398e-05
-6.30732e-05
-3.77621e-05
-6.07035e-05
-3.05836e-05
-4.55333e-05
-3.36415e-05
-3.20789e-05
-8.14047e-05
-3.54393e-05
-4.67501e-05
-4.58037e-05
-3.14356e-05
-1.56458e-05
-4.37108e-05
-8.81749e-05
-8.19709e-05
-4.41302e-05
-3.67982e-05
-1.92602e-05
-6.56501e-05
-4.16213e-05
-4.97931e-05
-2.98264e-05
-3.4222e-05
-6.64296e-05
-4.5709e-05
-9.1855e-06
-5.5993e-05
-5.53984e-05
-6.02704e-05
-4.36426e-05
-4.87331e-05
-3.82808e-05
-1.47347e-05
-6.80609e-05
-8.44285e-05
-2.20975e-05
-3.36246e-05
-5.43307e-05
-7.13173e-05
-2.55074e-05
-6.0048e-05
-5.21469e-05
-2.78844e-05
-2.72186e-05
-5.82609e-05
-3.80535e-05
-7.24223e-05
-7.12494e-05
-6.59325e-05
-9.11264e-05
-5.48398e-05
-6.59446e-05
-8.76448e-05
-3.77919e-05
-5.16154e-06
-3.89218e-05
-9.84023e-05
-5.08331e-05
-5.4766e-05
-2.75688e-05
-2.96043e-05
-4.78586e-05
-4.09014e-05
-6.17496e-05
-0.000118495
-6.48925e-05
-2.9484e-05
-5.0333e-05
-5.04666e-05
-4.3704e-05
-4.48303e-05
1.40983e-05
-5.21534e-05
-6.28799e-05
-5.7448e-05
-5.70546e-05
2.65749e-06
-5.2146e-05
-7.09483e-05
-1.57047e-05
-2.77598e-05
-3.36447e-05
-4.74182e-05
-3.05834e-05
-5.69879e-05
-3.02224e-05
-1.43041e-05
-5.22809e-05
-1.52228e-05
-7.49089e-05
-9.35293e-05
-7.06618e-05
-6.43466e-05
-2.4665e-05
-4.81402e-05
-4.09726e-05
-7.18338e-05
-2.87141e-05
-3.89447e-05
-4.45519e-05
-7.06587e-05
-5.16578e-05
-3.8176e-05
-6.66682e-05
-5.20584e-05
-7.22627e-05
-4.07198e-05
-3.67744e-05
-4.96817e-05
-8.73582e-05
-6.33819e-05
-8.83566e-05
-6.80915e-05
-3.49351e-05
-4.2225e-05
-2.9945e-05
-6.4719e-05
-7.8863e-05
-4.41652e-05
-6.73159e-05
-1.44387e-05
-2.85288e-05
-6.303e-05
-6.15087e-05
-4.34126e-05
-6.74427e-05
-7.37587e-05
-6.57561e-05
-3.12234e-05
-7.41328e-05
-2.59121e-05
-5.10258e-05
-6.94385e-05
-9.73746e-05
-9.16514e-05
-0.000100024
-2.1101e-05
-5.19151e-05
-2.68436e-05
-3.50462e-05
-9.2482e-05
-6.94156e-05
-4.6789e-05
-6.528e-05
-0.000100528
-5.88767e-05
-0.0001027
-4.78536e-05
-4.09699e-05
-6.79038e-05
-8.27407e-06
-5.04628e-05
-7.99372e-05
-5.79896e-05
-6.15569e-05
-4.02746e-05
-7.75613e-05
-7.42276e-05
-9.59591e-05
-6.37973e-05
-5.86757e-05
-2.80303e-05
-3.79179e-05
-5.8083e-05
-6.32001e-05
-1.52207e-05
-2.77047e-05
-5.87894e-05
-5.26215e-05
-7.16058e-05
-6.70061e-05
-0.000112765
-4.13007e-05
-2.78635e-05
-2.73535e-05
-3.27162e-05
-2.18604e-05
-5.46867e-05
-4.34247e-05
-2.33906e-05
-4.68498e-05
-8.87961e-05
-6.81311e-05
-1.65051e-05
-3.70711e-05
-3.58383e-05
-5.29441e-05
-8.34938e-05
-0.000115123
-5.71381e-05
-9.90169e-05
-7.22663e-05
-4.55834e-05
-7.54146e-05
-6.58159e-05
-2.75526e-05
-6.0213e-05
-8.27715e-05
-3.26413e-05
-8.56491e-05
-3.57396e-05
-5.08169e-05
-8.50615e-05
-3.37146e-05
-7.69414e-05
-4.83783e-05
-4.94566e-05
-1.62089e-05
-9.21516e-05
-4.28362e-05
-9.16327e-05
-6.13866e-05
-8.24907e-05
-2.54479e-05
-2.91545e-05
9.00828e-06
-4.96662e-05
-4.66603e-05
-3.40158e-05
-5.88481e-05
-5.47105e-05
-1.79299e-05
-4.08093e-05
-0.000116045
-9.80179e-05
-5.63876e-05
-6.29506e-05
-6.99761e-05
-4.67666e-05
-7.28193e-05
-2.69747e-05
-9.37733e-06
-3.74701e-05
-5.54186e-05
-6.90678e-05
-3.93277e-05
-3.92077e-05
-7.77652e-05
-6.28561e-05
-6.40028e-05
-8.56296e-05
-5.94097e-05
-6.71165e-05
-9.46781e-05
-6.48525e-05
-1.75154e-05
-5.20485e-05
-2.84336e-05
-4.19057e-05
-8.58147e-05
-6.73042e-05
-1.4005e-05
-6.7644e-05
-6.88417e-05
-7.27776e-05
-6.12204e-05
-1.81188e-05
-3.58781e-05
-5.83009e-05
-5.1753e-05
-5.49889e-05
-4.45401e-05
-8.31524e-05
-3.30923e-05
-2.44121e-05
-4.03206e-05
-2.59174e-05
-1.95489e-05
-6.37099e-05
-9.77727e-05
-3.98895e-05
-5.13249e-05
-5.01677e-05
-5.87377e-05
-4.03314e-05
-6.84633e-06
-1.90131e-05
-2.17908e-05
-0.000110764
-3.46361e-05
-3.79855e-05
-2.10873e-05
-7.23688e-05
-3.57275e-05
-5.07437e-05
-2.66704e-05
-8.00651e-05
-2.7016e-05
-5.33421e-05
6.36044e-06
-4.37126e-05
-1.64518e-05
-7.27138e-05
-5.56883e-05
-6.16353e-05
-8.43775e-05
-8.07146e-05
-5.06661e-05
-2.91379e-05
-3.15372e-05
-5.55055e-05
-4.7765e-06
-2.5944e-05
-5.9898e-05
-7.49253e-05
-5.26225e-05
-2.34412e-05
-3.93791e-05
-4.64554e-05
-4.15715e-05
-4.01708e-05
-3.57491e-05
-3.80303e-05
-0.000105982
-1.53782e-05
-7.48633e-05
-6.04979e-05
-3.52844e-05
-5.37989e-05
-6.82746e-05
-4.42258e-05
8.62435e-06
-3.65661e-05
-7.13038e-05
-3.52015e-05
-5.92781e-05
-4.92337e-05
-7.43689e-05
-5.53246e-05
-9.40201e-05
-6.00592e-05
-5.08754e-05
-9.32747e-05
-7.15589e-05
-4.28511e-05
-7.65338e-05
-4.52372e-05
-4.51934e-05
-2.04239e-05
-5.33269e-05
-4.54807e-05
-2.56794e-05
-3.83828e-05
-5.38326e-05
-7.86189e-05
-4.91915e-05
-6.5329e-05
-4.39537e-05
-1.88934e-05
-3.94531e-05
-5.11474e-05
-3.03349e-05
-6.91602e-05
-4.32071e-05
-9.18136e-05
-3.80993e-05
-6.92504e-05
-4.68538e-05
-3.18488e-05
-1.48209e-05
-4.72268e-05
-5.84865e-05
-1.51164e-05
-3.15885e-05
-3.55346e-05
-6.36517e-05
-6.42425e-05
-5.61464e-05
-8.34266e-05
-6.73819e-05
-8.23543e-05
-6.56697e-05
-3.22997e-05
-5.38568e-05
-6.9881e-05
-5.95748e-05
-6.63086e-05
-3.5027e-05
-6.36634e-05
-4.72634e-05
-7.84258e-05
-8.97654e-06
-5.00085e-05
-7.78929e-05
-4.96134e-05
-4.64102e-05
-6.68909e-05
-5.88389e-05
-7.26486e-05
-5.93094e-05
-4.99106e-05
-8.61794e-05
-4.89044e-05
-9.46249e-05
-5.68051e-05
-3.1003e-05
-5.17807e-05
-2.58493e-05
-2.1416e-05
-6.43898e-05
-3.93501e-05
-5.81164e-05
-6.61035e-05
-2.22153e-05
-0.0001039
-4.64816e-05
-4.27307e-05
-4.3895e-05
-3.04216e-05
-3.62175e-05
-4.02571e-05
-6.5096e-05
-6.12135e-05
-8.72907e-05
-8.546e-05
-1.79052e-05
-6.0258e-05
-8.52834e-05
-8.2232e-05
-6.18291e-05
-3.9132e-05
-1.71564e-05
-6.34136e-05
-5.86552e-05
-5.23028e-05
-2.78958e-05
-6.08125e-05
-6.16826e-05
-4.13243e-05
-5.08727e-05
-4.73719e-05
-4.87248e-05
-6.15574e-05
-9.41681e-05
-7.10162e-05
-2.72016e-05
-3.90232e-05
-7.31504e-05
-8.05214e-05
-4.85232e-05
-6.15039e-05
-7.6119e-05
-5.31664e-05
-6.85575e-05
-7.60832e-05
-9.64927e-05
-7.23146e-05
-4.16609e-05
-5.24207e-05
-5.18841e-05
-2.06103e-05
-5.3959e-05
-9.14041e-05
-5.49876e-05
-3.22027e-05
-2.17201e-05
-3.34012e-05
-2.74715e-05
-2.92768e-05
-6.49286e-05
-5.00681e-05
-3.83556e-05
-8.6915e-05
-7.98603e-05
-5.95732e-05
-6.12444e-05
-7.41397e-05
-4.3552e-05
-5.14413e-05
-5.62647e-05
-1.86138e-05
-3.71043e-05
-4.99285e-05
-6.08667e-05
-4.33408e-05
-3.075e-05
-8.84097e-05
-8.80229e-05
-1.15919e-05
-4.42766e-05
-3.76397e-05
-6.71597e-05
-0.000102037
-7.75227e-05
-6.25776e-05
-6.85589e-05
-7.44136e-05
-4.31307e-05
-3.60616e-05
-5.95984e-05
-7.92309e-05
-5.74605e-05
-6.52801e-05
-3.69233e-05
-5.65099e-05
-3.34833e-05
-2.86569e-05
-8.58686e-05
-5.21582e-05
-6.03844e-05
-6.34674e-05
-6.05879e-05
-0.000105156
-3.77648e-05
-5.95192e-05
-7.98152e-05
-5.7627e-05
-6.11714e-05
-0.000102624
-7.43843e-05
-4.78089e-05
-2.94585e-05
-6.98916e-05
-6.38754e-05
-1.20515e-05
-6.63823e-05
-3.53592e-05
-5.1209e-05
-3.58814e-05
-1.77581e-05
-4.2471e-05
-4.83316e-05
-3.99707e-05
-3.74392e-05
-4.04968e-05
-5.2646e-05
-4.21958e-05
-3.43099e-05
-3.79497e-05
-4.63362e-05
-3.62755e-05
-2.28875e-05
-3.01636e-05
-5.95692e-05
-3.54212e-05
-3.88073e-05
-4.96722e-05
-2.75303e-05
-5.92447e-05
-5.42892e-05
-7.58026e-05
-5.18913e-05
-6.30937e-05
-3.42044e-05
-8.36739e-05
-0.000102075
-6.93505e-05
-2.55159e-05
-5.33475e-05
-4.87418e-05
-9.17009e-05
-0.000102119
-7.26662e-05
-4.46335e-05
-3.29774e-05
-5.18482e-05
-2.02445e-05
-1.95086e-05
-3.77481e-05
-4.29173e-05
-4.78349e-05
-5.82523e-05
-4.67617e-05
-1.42485e-05
-4.63721e-05
3.65421e-06
-2.71659e-05
-3.85991e-05
-5.96537e-05
-1.56734e-05
-5.22286e-05
-8.82914e-05
-3.95943e-05
-3.91767e-05
-3.9295e-05
-2.84176e-05
-7.51153e-05
-4.17528e-05
-2.85404e-05
-4.02343e-05
-4.67494e-05
-3.06534e-05
-6.02049e-05
-9.27277e-05
-6.22513e-05
-8.18636e-05
-5.89018e-05
-7.00914e-05
-3.71312e-05
-6.88655e-05
-7.29165e-05
-3.23976e-05
-6.06532e-05
-6.38472e-05
-9.02975e-06
-2.61613e-05
-6.4415e-05
-5.99275e-05
-2.55858e-05
-6.142e-05
-4.94246e-05
-1.05743e-05
-2.97441e-05
-1.40567e-05
-5.37512e-05
-5.6535e-05
-2.99391e-05
-2.97589e-05
-5.88944e-05
-5.76177e-05
-5.04014e-05
-4.29625e-05
-1.46683e-05
-3.58895e-05
-2.33211e-05
-2.58018e-05
-7.47195e-05
-6.8615e-05
-4.19001e-05
-4.548e-05
-7.4649e-05
-9.81258e-05
-5.80277e-05
-6.55518e-05
-0.000116177
-7.65207e-05
-6.66599e-05
-7.47712e-05
-7.62282e-05
-4.38049e-05
-7.13772e-05
-7.52445e-05
-8.53195e-05
-4.56634e-05
-1.3837e-05
-7.34788e-05
-3.47889e-05
-5.73094e-05
-2.56023e-05
-7.00408e-05
-3.64091e-05
-1.37758e-05
-6.42484e-05
-5.96187e-05
-2.66436e-05
-4.25548e-05
-4.37749e-05
-1.29466e-05
-5.54329e-05
-6.00566e-05
-3.73275e-05
-4.29564e-05
-7.46955e-05
-4.77346e-05
-6.99024e-05
-4.60346e-05
-4.87524e-05
-8.79057e-05
-0.000109775
-3.94646e-05
-5.03223e-05
-2.33932e-05
-2.53332e-05
-3.43982e-05
-2.69299e-05
-5.61276e-05
-3.32873e-05
-4.50606e-05
-7.19639e-05
-8.81119e-05
-6.11592e-05
-6.21684e-05
-5.01024e-05
-3.95256e-05
-3.31844e-05
-4.14515e-05
-4.66707e-06
2.01611e-05
-6.22939e-05
-5.22616e-05
-7.34756e-05
-4.44164e-05
-6.98696e-05
-4.53522e-05
-2.88931e-05
-3.35604e-05
-4.12415e-05
-1.04622e-05
-3.59281e-05
-2.99935e-06
-4.01098e-05
-5.53008e-05
-4.60614e-05
-6.94303e-05
-4.43164e-05
-4.43974e-05
-4.98241e-05
-1.16027e-05
-5.48673e-05
-2.80722e-05
-2.97349e-05
-7.25871e-05
-6.87474e-05
-0.000110416
-4.12878e-05
-7.44236e-05
-2.95875e-05
-3.41344e-05
-6.17932e-05
-9.09388e-05
-8.01318e-05
-4.43802e-05
-6.92782e-05
-4.75161e-05
-1.37421e-05
-6.4584e-05
-7.22661e-05
-6.04879e-05
-4.07591e-05
-2.48415e-05
-4.67995e-05
-6.83156e-05
-5.2907e-05
-3.03917e-05
-6.68348e-05
-4.55856e-05
-2.99709e-05
-4.64162e-06
-1.8917e-05
-6.1232e-05
-8.68657e-05
-5.04437e-05
-4.18281e-05
-7.50733e-05
-5.40561e-05
-1.90783e-05
1.94777e-08
-5.53837e-05
-6.20969e-05
-5.78688e-05
-4.07848e-05
-7.37405e-05
-4.12166e-05
-2.57276e-05
-4.48267e-05
-5.91187e-05
-7.02516e-05
-4.82395e-05
-5.53473e-05
-3.73305e-05
-2.56563e-05
-4.5165e-05
-6.52743e-05
-6.18053e-05
-7.04394e-05
-6.18928e-05
-7.0523e-05
-6.45636e-05
-7.24189e-05
-5.11053e-05
-8.05054e-05
-3.99618e-05
-4.82359e-05
-6.60094e-05
-1.08253e-05
-5.17617e-05
-5.86645e-05
-1.10733e-05
-4.14457e-05
-1.61866e-05
-2.62548e-05
-2.05328e-05
-2.72565e-05
-4.62103e-05
-8.50199e-06
-4.31415e-05
-6.88864e-05
-2.00659e-05
-3.28911e-06
-5.98052e-05
-3.47422e-06
-3.95027e-05
-4.29083e-05
-3.66309e-06
-2.5736e-05
-3.35843e-05
-3.71508e-05
-6.65999e-06
-1.92653e-05
-2.95644e-05
-3.61481e-06
-7.30863e-05
-5.48954e-05
-2.56534e-05
-4.96718e-05
-1.99781e-05
-4.47574e-05
-9.53827e-05
-5.61522e-05
-8.90425e-05
-3.28725e-05
-8.45548e-05
-4.82148e-05
-4.77269e-05
-4.54464e-05
-7.60816e-05
-0.000143799
-8.02577e-05
-4.14022e-05
-4.21786e-05
-8.12076e-05
-7.95033e-05
-5.87113e-05
-3.41447e-05
-3.87574e-05
-4.09927e-05
-7.23298e-05
-7.65196e-05
-5.78385e-05
-6.70983e-05
-6.3126e-05
-5.61097e-05
-5.17136e-05
-3.57089e-05
-8.49827e-06
-3.3823e-05
-6.1998e-05
-2.80529e-05
-7.95825e-05
-5.59261e-05
-6.10056e-05
-4.97544e-05
-1.34768e-05
-2.82416e-05
-4.5588e-05
-3.98898e-05
-1.73996e-05
-1.71915e-05
-3.93885e-05
-4.42501e-05
-5.06493e-05
-8.34547e-05
-8.65938e-05
-7.96856e-05
-3.44242e-05
-2.58603e-05
-4.62598e-05
-2.56118e-05
-5.39081e-05
-7.35777e-05
-4.85345e-05
-6.42311e-05
-5.30188e-05
-6.78582e-05
-4.15888e-05
-4.24109e-05
-1.94931e-05
-6.73412e-05
-7.72035e-05
-2.38123e-05
-6.32594e-05
-4.87968e-05
-5.75879e-05
-8.68618e-05
-5.28473e-05
-8.41207e-05
-4.43913e-05
-3.80448e-05
-3.29918e-05
-5.8841e-05
-2.7818e-05
-6.67968e-05
-6.2463e-05
-2.46719e-05
-1.38466e-05
-3.20733e-05
-5.63604e-05
-7.75124e-05
-4.40339e-05
-7.61362e-05
-7.85438e-05
-5.58548e-05
-4.98638e-05
-3.04937e-05
-4.00141e-05
-7.58827e-05
-6.85414e-05
-5.84823e-05
-5.98919e-05
-4.75184e-05
-6.5306e-05
-8.85598e-05
-5.26531e-05
-7.76292e-05
-8.26356e-05
-3.13405e-05
-2.57667e-05
-6.41226e-05
-6.95067e-05
-8.18745e-05
-5.24586e-05
-8.62722e-05
-3.85887e-05
-4.23267e-05
-3.82918e-05
-3.49945e-05
-2.45185e-05
-7.10589e-05
-5.13008e-05
-3.6842e-05
-4.67483e-05
-3.3849e-05
-4.47635e-05
-1.61773e-05
-7.68412e-05
-2.59661e-05
-6.63012e-05
1.74804e-06
-1.511e-05
-8.78891e-05
-5.41008e-05
-7.32423e-05
-5.15461e-05
-6.84254e-05
-0.000103335
-7.41003e-05
-6.86337e-05
-6.71606e-05
-6.24334e-05
-4.21634e-06
-3.77185e-05
-6.44587e-05
-1.35537e-05
-5.22059e-06
-3.8156e-05
-5.53183e-05
-8.68958e-05
-5.75911e-05
-2.54639e-05
-3.47929e-05
-2.68161e-05
-4.55698e-05
-3.93538e-05
-5.92374e-05
-2.97474e-05
-2.95841e-05
-4.22387e-05
-6.81439e-05
-6.22244e-05
-5.14231e-05
-2.51467e-05
-4.37688e-05
-4.3323e-05
-4.00796e-05
-3.84006e-05
-2.11261e-05
-7.90397e-05
-2.56687e-05
-6.00056e-05
-5.86808e-05
-3.3947e-06
-1.80763e-05
-3.15598e-05
-7.48297e-05
-7.87739e-05
-5.69417e-05
-3.59833e-05
-5.9313e-05
-2.54609e-05
-3.81527e-05
-6.66396e-05
-4.59891e-05
-7.50391e-05
-5.86079e-06
-2.29167e-05
-3.31595e-05
-4.55109e-05
-6.65678e-05
-9.48576e-05
-5.17401e-05
-5.55884e-05
-9.59865e-05
-8.02265e-05
-8.70476e-05
-7.96028e-05
-7.10832e-05
-1.54249e-05
-3.75467e-05
-7.53564e-05
-4.55128e-05
-5.32656e-05
-7.73351e-05
-6.03897e-05
-5.54882e-05
-2.2452e-05
-4.78638e-05
-6.42005e-05
-1.06418e-05
-6.45356e-05
-3.48175e-05
-1.56838e-05
-3.44475e-05
-5.87328e-05
-3.8972e-05
-6.2893e-05
-7.38482e-05
-6.93724e-05
-5.65919e-05
-9.38215e-05
-6.13111e-05
-6.13589e-05
-4.91346e-05
-5.61958e-05
-4.47464e-05
-5.44427e-05
-3.74674e-05
-7.32237e-05
-3.01683e-05
-8.84158e-05
-6.70124e-05
-9.58342e-05
-8.28545e-05
-7.96302e-05
-5.73768e-05
-3.70932e-05
-4.45952e-05
-6.07708e-05
-2.93623e-05
-2.86489e-05
-7.00973e-05
-5.98289e-05
-7.73234e-05
-3.60881e-05
-2.15557e-05
-6.44547e-05
-6.73382e-05
-2.98857e-05
-5.7675e-05
-1.76874e-05
-3.68778e-05
-3.13009e-05
-5.4889e-05
-6.68625e-05
-2.18599e-05
-8.42673e-05
-6.10704e-05
-6.15844e-05
-4.94856e-05
-7.5677e-05
-4.2111e-05
-5.01899e-05
-3.80319e-05
-5.13856e-05
-5.85592e-05
-7.44466e-05
-2.65712e-05
-4.43278e-05
-5.8983e-05
-3.67307e-05
-2.92573e-05
-5.69852e-05
-7.69017e-05
-6.71855e-05
-8.13475e-05
-3.37038e-05
-2.90636e-05
-4.90282e-05
-8.13588e-06
-3.71594e-05
-7.9894e-05
1.63699e-06
-5.76841e-05
-4.34105e-05
-8.91498e-05
-8.18204e-05
-4.08413e-05
-4.73147e-05
-5.40279e-05
-4.28242e-05
-4.76608e-05
-6.22682e-05
-5.9514e-05
-6.92369e-06
-3.28444e-05
-1.88061e-05
-6.41378e-05
-5.99399e-05
-6.6124e-05
-3.92732e-05
3.87961e-06
-7.57439e-05
-7.68519e-05
-5.65118e-05
-5.5717e-05
-8.21737e-05
-3.96722e-05
-4.31639e-05
-4.42655e-05
-0.000112452
-0.000102716
-5.84474e-05
-2.29221e-05
-9.35233e-05
-3.10951e-05
-4.5288e-05
-4.31464e-05
-7.51274e-05
-6.14071e-05
-4.01733e-05
-4.80933e-05
-1.35004e-05
-4.23506e-06
-1.8364e-05
-4.46328e-05
-4.35308e-05
-7.15224e-05
-7.54031e-05
-5.60504e-05
-2.32531e-05
-4.97653e-06
-2.38109e-05
-3.38257e-05
-1.54409e-05
-1.2953e-05
-2.23564e-05
-5.66966e-05
-4.23697e-05
-4.90805e-05
-5.50131e-05
-5.73523e-05
-5.20342e-05
-8.30028e-05
-3.76627e-05
-3.64423e-05
-6.28764e-05
-6.88422e-05
-4.19142e-05
-4.59608e-05
-1.95649e-05
-6.55564e-05
-8.40968e-06
-2.44787e-05
-4.85022e-05
-3.86941e-05
-6.34737e-05
-8.74845e-05
-5.01651e-05
-3.74242e-05
-7.41575e-05
-4.93211e-05
-4.43523e-05
-4.86407e-05
-3.20114e-05
-2.32644e-05
-6.70035e-05
-3.71896e-05
-7.88632e-05
-6.24577e-05
-4.41188e-05
-6.43879e-05
-6.51505e-05
-4.43421e-05
-5.91606e-05
-6.64254e-05
-4.70695e-05
-2.33666e-05
-4.31211e-05
-3.05946e-05
-9.20852e-05
-5.06394e-05
-8.4006e-05
-2.90785e-05
-2.0206e-05
-3.29897e-05
-1.03586e-05
-3.57584e-05
-5.9298e-05
-6.81041e-05
-4.39645e-05
-6.87208e-05
-0.000132494
-6.91789e-05
-6.191e-05
-7.48405e-05
-5.24338e-05
-4.15655e-05
-5.93065e-05
-2.11585e-05
-2.3592e-05
-4.9312e-05
-5.49362e-05
-6.56749e-05
-8.68916e-05
-4.95386e-05
-4.62288e-05
-4.51565e-05
-2.26832e-05
-3.79801e-05
-4.5964e-05
-6.82801e-06
-3.33541e-05
-2.1295e-05
-5.59945e-05
-3.45349e-05
-5.87982e-05
-9.64501e-05
-4.45572e-05
-3.44794e-05
-1.50433e-06
-3.47024e-05
-6.04178e-05
-6.88375e-05
-5.34217e-05
-9.08678e-05
-4.25581e-05
-3.91667e-05
-5.12598e-05
-1.71251e-05
-5.09489e-05
-7.6386e-05
-5.63883e-05
-6.04938e-05
-6.56169e-05
-4.80534e-05
-4.89337e-05
-4.75084e-05
-3.46349e-05
-5.56439e-05
-5.225e-05
-5.19045e-05
-3.82729e-05
-6.12899e-05
-4.56857e-05
-2.272e-05
-4.43999e-05
-5.41511e-05
-5.83132e-05
-7.7005e-05
-5.90672e-05
-6.2438e-05
-7.50494e-05
-3.81405e-05
-3.80625e-05
-4.89768e-05
-1.64709e-05
-9.55566e-05
-6.63258e-05
-8.20756e-05
-4.28188e-05
-6.8322e-05
-5.97639e-05
-3.187e-05
-4.29703e-05
-0.000109386
-6.4448e-05
-5.30586e-05
-4.71374e-05
-5.17622e-05
-4.85832e-05
-5.62992e-05
-6.98568e-05
-4.3437e-05
-2.44607e-05
-2.68163e-05
-4.69379e-05
-6.36773e-05
-6.24096e-05
-4.44769e-05
-5.79899e-05
-6.11963e-05
-5.76879e-05
-2.918e-05
-6.97327e-05
-8.37974e-06
-1.40433e-05
-3.754e-05
-8.24417e-05
-3.62046e-05
-6.60546e-05
-2.98695e-05
-4.70704e-05
-1.57338e-05
-8.35434e-05
-7.23045e-05
-9.70011e-05
-6.50157e-05
-3.24819e-05
-3.77926e-05
-5.83554e-05
-3.57302e-05
-7.28686e-06
-1.94132e-05
-6.26318e-05
-3.95434e-05
-5.37654e-05
-4.28055e-05
-7.17845e-05
-4.92436e-05
-3.06709e-05
-1.93868e-05
-4.30248e-05
-4.08841e-05
-6.24841e-05
-4.57751e-05
-8.3585e-05
-7.64421e-05
-2.95296e-05
-6.73312e-05
-4.71478e-05
-4.06643e-05
-3.98586e-05
-5.64168e-05
-5.90779e-06
-6.02216e-05
-6.31958e-05
-3.3856e-05
-6.78408e-05
-3.64992e-05
-6.29808e-05
-4.66279e-05
-8.05692e-05
-5.04739e-05
-5.03321e-05
-9.30306e-05
-4.84885e-05
-6.01467e-05
-6.01722e-05
-4.99242e-05
-3.40497e-05
-4.89068e-05
-5.32497e-05
-7.64146e-05
-6.22228e-05
-8.09066e-05
-3.04619e-05
-4.04795e-05
-7.54785e-05
-6.8664e-05
-6.89738e-05
-5.04033e-05
-3.71027e-05
-4.6741e-05
-5.50211e-05
-5.09736e-05
-4.19248e-06
-3.25733e-05
-8.37932e-05
-8.49206e-05
-6.71154e-05
-4.48632e-05
-3.82446e-05
-2.95856e-05
-6.65032e-05
-6.33029e-05
-2.71267e-05
-2.60498e-05
-5.07293e-05
-7.60722e-05
-7.08669e-05
-6.3083e-05
-7.01877e-05
-7.17389e-05
-4.70547e-05
-6.38048e-05
-3.83267e-05
-7.70296e-05
-6.32161e-05
-8.2589e-05
-5.89075e-05
-5.30478e-05
-7.65664e-05
-6.56598e-05
-6.14791e-05
-6.33159e-05
-5.11135e-05
-3.68322e-05
-2.66838e-05
-0.00010441
-7.49321e-05
-1.46397e-05
-3.22375e-05
-5.66775e-05
-2.63864e-05
-0.000104968
-2.36541e-05
-3.66162e-05
-2.88754e-05
-6.65699e-05
-3.80576e-05
-7.14275e-05
-4.15858e-05
-5.33065e-05
-8.12162e-05
-8.00564e-05
-7.92689e-05
-6.16253e-05
-5.65363e-05
-3.33495e-05
-3.83449e-05
-4.64473e-05
-3.45527e-05
-2.7481e-05
-5.53171e-05
-3.35653e-05
-8.03741e-06
-3.84626e-05
-4.52344e-05
-6.74056e-05
-6.74177e-05
-1.46701e-05
-6.71003e-05
-4.16025e-05
-2.36475e-05
-7.10046e-05
-6.32758e-05
-7.06707e-05
-0.000101143
-2.92405e-05
-4.81773e-05
-1.54233e-05
-3.68977e-05
-4.97327e-05
-3.09562e-05
-3.70276e-05
-6.45573e-05
-6.27054e-05
-5.07002e-05
-7.44618e-06
-7.3182e-05
-2.49259e-06
-1.0024e-05
-5.51927e-05
-8.28535e-05
-3.58549e-05
-6.3059e-05
-3.45737e-05
-1.30334e-05
-7.69502e-05
-3.75255e-05
-8.47073e-05
-6.40617e-05
-1.38661e-05
-1.30505e-05
-3.93251e-05
-6.92175e-05
-7.21328e-05
-8.46954e-05
-7.15869e-05
-3.20332e-05
-5.66144e-05
-3.51997e-05
-4.06225e-05
-3.83635e-05
-4.27148e-05
-4.83587e-05
-1.89369e-05
-4.49967e-05
-4.08384e-05
-9.01648e-05
-6.333e-05
-7.93791e-05
-2.87919e-05
-7.82622e-05
-8.04709e-05
-4.66271e-05
-5.03976e-05
-6.2766e-05
-3.45331e-05
-2.18718e-05
-4.34679e-05
-4.32117e-05
-5.71996e-05
-7.04988e-05
-3.38085e-05
-0.000100508
-2.2564e-05
-6.34947e-05
-5.91993e-05
-1.11081e-05
-1.14164e-05
-7.01036e-06
-4.6414e-05
-6.10864e-05
-5.60356e-05