# vtk DataFile Version 1.0
Net Charge Density
ASCII
DATASET STRUCTURED_POINTS
DIMENSIONS 256 128 1
ORIGIN 0 0 0
SPACING 0.15625 0.15625 1
POINT_DATA 32768
SCALARS rhonet float
LOOKUP_TABLE default
-0.000107905
-7.17018e-05
-6.91763e-05
-6.43378e-05
-7.95456e-05
-7.13718e-05
-0.000134944
-8.61485e-05
-3.23978e-05
-7.11146e-05
-7.16783e-05
-8.56463e-05
-6.466e-05
-8.42846e-05
-8.48511e-05
-0.000122105
-7.72483e-05
-5.74654e-05
-3.33758e-06
-0.000118338
-0.000116676
-0.000107198
-4.18062e-05
-7.58883e-05
-9.05778e-05
-9.30103e-05
-0.000142265
-0.000103439
-4.93273e-05
-7.17669e-05
-8.6025e-05
-0.000101249
-1.44516e-05
-8.35586e-07
-7.68037e-05
-5.32215e-05
-0.000111601
-0.000105939
-2.93558e-05
-6.78743e-05
-4.43238e-05
-3.78685e-05
-5.2859e-05
-0.000100264
-6.85742e-05
-7.30972e-05
-6.15845e-05
-6.5721e-05
-9.27031e-05
-7.98631e-05
-5.2479e-05
-7.24026e-05
-8.54901e-05
-2.47951e-05
-5.86863e-05
-8.58275e-05
-6.87551e-05
-7.16604e-05
-2.03589e-05
-6.29216e-05
-6.67562e-05
-2.11694e-05
-4.01904e-05
-5.57676e-05
-0.00010288
-5.54216e-05
-0.000111338
-7.19745e-05
-9.34143e-05
-8.80909e-05
-7.71667e-05
-4.61319e-05
-4.42602e-05
-4.84742e-05
-8.73719e-05
-9.03864e-05
-4.82518e-05
-3.85887e-05
-0.000115708
-0.000124822
-6.85143e-05
-6.64573e-05
-2.86001e-05
-0.000149238
-4.93652e-05
-8.68155e-05
-0.000139694
-7.39826e-05
3.79287e-06
-2.66545e-05
-0.000105358
-4.93777e-05
-3.6072e-05
-6.7912e-05
-6.76625e-05
-9.83295e-05
-2.55167e-05
-7.03272e-05
-7.0291e-05
-4.41985e-05
-8.3946e-05
-0.000136753
-4.64104e-05
-7.89148e-05
-7.14174e-05
-5.52654e-05
-0.00011813
-6.65385e-05
-9.14257e-05
-0.000130695
-7.09191e-05
-2.79357e-05
-7.79837e-05
-6.67474e-05
-3.97636e-05
-6.56566e-05
-8.69611e-05
-6.81534e-05
-5.89415e-05
-6.59662e-05
-8.53501e-05
-1.45022e-05
-9.68533e-05
-9.16869e-05
-0.000119558
-5.79054e-05
-2.01851e-05
-4.49879e-05
-7.64699e-05
-7.14159e-05
-4.80422e-05
-0.000113527
-9.63061e-05
-0.000107248
-0.000105682
-6.44705e-05
-6.34422e-05
-6.85147e-05
-5.08504e-05
-6.72474e-05
-5.28935e-05
-7.42594e-05
-2.84606e-05
-9.64213e-05
-9.02587e-05
-0.000102885
-0.000135339
-8.51042e-05
-8.11925e-05
-0.00013434
-5.62277e-05
-8.21009e-05
-6.16244e-05
-7.47509e-05
-0.000111901
-9.14432e-05
-5.22697e-05
-3.0058e-05
-8.70955e-05
-0.000121561
-7.76635e-05
-8.15611e-05
-2.23074e-05
-6.18788e-05
-2.94384e-05
-5.97418e-05
-6.63063e-05
-4.3293e-05
-4.56892e-05
-8.52701e-05
-7.13004e-05
-9.31973e-05
-0.000115758
-6.93855e-05
-8.12801e-05
-7.69426e-05
-3.21755e-05
-0.000108064
-6.18245e-05
-3.16491e-05
-0.000102377
-4.33836e-05
-7.44751e-05
-0.000100532
-5.93296e-05
-2.79423e-05
-1.99313e-05
-4.559e-05
-5.64252e-05
-8.0822e-05
-3.40222e-05
-0.000109598
-6.39554e-05
-8.09301e-05
-6.96362e-05
-4.44948e-05
-0.000110813
-0.000107366
-1.74679e-05
-0.000103279
-9.39813e-05
-4.5863e-05
-5.7893e-05
-0.000101451
-0.000137917
-3.4834e-05
-7.45364e-05
-0.000103993
-6.44479e-05
-5.98803e-05
-3.0418e-05
-8.81122e-05
-5.42654e-05
-2.2871e-05
-5.68425e-05
-6.65972e-05
-7.84754e-05
-1.42784e-05
-0.000100343
-9.0793e-05
-6.51932e-05
-0.000113123
-4.27127e-05
-6.07473e-05
-0.000130272
-4.88812e-05
-5.67971e-05
-8.35806e-05
-9.46272e-05
-4.97898e-05
-0.000103953
-8.77242e-05
-0.000106273
-4.15877e-05
-8.33044e-05
-0.000117239
-8.34231e-05
-0.000125412
-8.71123e-05
-6.32746e-05
-4.37224e-05
-8.3004e-05
-6.30705e-05
-6.79553e-05
-4.86112e-05
-7.33833e-05
-5.76627e-05
-5.52804e-05
-8.65774e-05
-3.62405e-05
-0.000103614
-9.67515e-05
-7.36847e-05
-9.18186e-05
-6.17023e-05
-5.51395e-05
-3.8282e-05
-5.07273e-05
-3.3058e-06
-6.96099e-05
-2.72005e-05
-6.14105e-05
-0.000104693
-3.92511e-05
-4.63873e-05
-6.22041e-05
-7.82573e-05
-4.14959e-05
-8.05034e-05
-3.76513e-05
-8.17833e-05
-8.16738e-05
-0.000138305
-7.24977e-05
-2.94674e-05
-2.755e-05
-6.66862e-05
-9.69445e-05
-6.26949e-05
-7.64657e-05
-6.05522e-05
-4.42163e-05
-2.97908e-05
-3.46102e-05
-5.77363e-05
-3.77857e-05
-7.47132e-05
-3.90635e-05
-8.98531e-05
-2.36679e-05
-4.61334e-05
-4.58888e-05
-3.642e-05
-6.83813e-05
-9.98834e-06
-1.70864e-05
-9.61341e-05
-0.000112238
-3.41807e-05
-2.61512e-05
-2.08699e-05
-5.46922e-05
2.01075e-05
-4.58754e-05
-7.22504e-05
-5.46358e-05
-3.24092e-05
-1.4715e-05
-7.14355e-05
-5.84187e-05
-5.67484e-05
-5.10193e-05
-6.17207e-05
-1.89499e-05
-7.94583e-05
-2.36296e-05
-7.47697e-05
-3.27045e-05
-2.316e-05
-3.48007e-05
-5.70235e-05
-5.92159e-05
-5.62523e-05
-3.12039e-05
-1.01036e-05
-7.16785e-05
-4.93912e-05
-5.36316e-05
-4.49192e-05
-8.04503e-05
-6.91719e-05
-8.25758e-05
-5.06284e-05
-8.59144e-05
-3.33279e-05
-1.32845e-05
-3.58529e-05
-7.34671e-05
-6.94765e-05
-4.65073e-05
-8.25916e-05
-6.9907e-05
-6.46608e-05
-4.28637e-05
-6.97386e-05
-5.16731e-05
-3.38531e-05
-5.14632e-06
-6.12874e-05
-6.69606e-05
-7.6195e-05
-5.63202e-05
-3.24404e-05
-3.08159e-05
-6.82597e-05
-1.20219e-05
-4.55811e-05
-3.28018e-05
-3.81138e-05
-1.54544e-05
-5.46431e-05
-3.13507e-05
-2.28874e-05
-3.93742e-05
-3.29802e-05
-7.68368e-05
-6.84912e-05
-4.12181e-05
-4.62249e-05
-2.01259e-05
-7.5798e-07
-2.44135e-05
-2.11613e-05
-4.32868e-05
-5.11903e-05
-9.20674e-05
-4.38435e-05
-6.57935e-05
-4.97706e-05
-6.48143e-05
-5.84677e-05
-4.34943e-05
-5.02527e-05
1.15781e-05
-4.99046e-05
-5.65243e-05
-6.56235e-05
-2.42761e-05
-8.5028e-05
-9.89074e-05
-4.62121e-05
-9.99033e-05
-6.96421e-05
-4.47009e-05
-5.80169e-05
-9.48974e-05
-5.29176e-05
-5.26732e-05
-2.58204e-05
-4.7613e-05
-9.7434e-05
-4.10437e-05
5.06971e-06
-4.01533e-05
-7.94131e-06
-4.39521e-05
-4.14423e-05
-7.68115e-05
-5.94387e-05
-6.15222e-05
-4.28929e-05
-5.20552e-05
-7.55512e-05
-3.81348e-05
-6.12368e-05
-7.34455e-05
-2.14605e-05
-4.9933e-05
-4.20219e-05
-2.17037e-05
-4.17476e-05
-2.64133e-05
-7.84037e-05
-3.9918e-05
-4.02434e-05
-6.06124e-05
-3.98712e-06
-4.39374e-05
-7.54373e-05
-3.19393e-05
-3.08296e-05
-5.00169e-05
-2.09233e-05
-7.07428e-05
-3.65812e-05
-8.63552e-06
-3.63965e-05
-3.2535e-05
-4.95029e-05
-4.59675e-05
-5.6441e-05
-1.41554e-05
-6.69794e-05
-8.2847e-05
-5.38059e-05
-0.000100527
-5.16606e-05
-5.06618e-05
-5.02458e-05
-5.91711e-05
-8.13655e-05
-3.06737e-05
-6.48707e-05
-5.43252e-05
-8.2301e-05
-4.10048e-05
-3.09446e-05
-5.87255e-05
-4.84968e-05
-3.71306e-05
-2.12801e-05
-9.10112e-05
-4.03538e-05
-6.32288e-05
-1.62784e-05
-1.5277e-05
-5.84661e-05
-1.76303e-05
-5.87616e-05
-7.15687e-05
-5.70715e-05
-5.0679e-05
-4.30748e-05
-7.74366e-05
-7.23919e-05
-5.24572e-05
-1.99147e-06
-2.54938e-05
-4.3834e-05
-1.75568e-05
-8.57711e-05
-1.92724e-05
1.49697e-05
-3.58919e-05
-7.44835e-05
-2.50314e-05
-3.06918e-05
-4.68827e-05
-6.6568e-05
-8.49334e-05
-3.33611e-05
-7.06206e-05
-7.06087e-05
-3.66251e-05
-4.347e-05
-4.43685e-05
-4.67545e-05
-7.44315e-05
-1.7744e-05
-6.38034e-05
-2.84935e-05
-6.5386e-05
-1.00702e-05
-5.31771e-05
-0.000129982
-8.91411e-05
-0.000101272
-5.25557e-05
-5.49911e-05
-5.06779e-05
-4.13421e-06
-3.84256e-05
-7.13118e-05
-6.36616e-05
-6.37881e-05
-5.31739e-05
-7.69966e-05
-5.64157e-05
-5.45104e-05
-2.97571e-05
-5.75385e-05
-9.47653e-05
-7.60122e-05
-5.37127e-05
-5.70912e-05
-8.08862e-05
-5.32053e-05
-6.15014e-05
-6.89035e-05
-2.20718e-05
-7.57644e-05
-5.81723e-05
-4.88118e-05
-5.88204e-05
-5.97533e-05
-5.31311e-05
-5.95851e-05
-4.05134e-05
-3.26447e-05
-5.8903e-05
-4.6776e-05
-2.30284e-05
-4.43645e-05
-7.29725e-05
-7.95196e-05
-2.40313e-05
-2.45467e-05
-6.7502e-05
-4.73465e-05
-1.6568e-05
-4.85486e-05
-4.85371e-05
-5.15607e-05
-4.70145e-05
-4.96032e-05
-6.27726e-05
-5.07976e-05
-6.05293e-05
-5.4429e-05
-2.66257e-05
-6.64934e-05
-1.90206e-05
-5.4768e-05
-4.50803e-05
-3.03958e-05
-4.08589e-05
-4.0536e-05
-4.61418e-05
-3.17522e-05
-8.50055e-05
-4.84695e-05
-3.76775e-05
-6.04585e-05
-5.46883e-05
-5.62226e-05
-5.63195e-05
-5.99456e-05
-4.31909e-05
-2.38582e-06
-4.11665e-05
-4.31192e-05
-6.9731e-05
-6.59031e-05
-3.29788e-05
-1.65816e-05
-6.78489e-05
-5.15003e-05
-3.75353e-05
-4.95957e-05
-2.46092e-05
1.62832e-05
-4.69696e-05
-8.08157e-05
-4.64597e-05
-4.39776e-05
-4.08732e-05
-4.47997e-05
-8.40713e-05
-5.09296e-05
-2.71269e-05
-6.33842e-05
-2.99907e-05
-3.60791e-05
-5.11987e-05
-1.32091e-05
-3.98933e-05
-5.35871e-05
-4.26779e-05
-3.00941e-05
-6.34402e-05
-1.8931e-05
-7.36208e-05
-3.8742e-05
-6.41912e-05
-6.55268e-05
-6.77191e-05
-6.37606e-05
-5.69261e-05
-1.92058e-05
-5.44891e-05
-4.1439e-05
-3.50421e-05
-6.3377e-05
-7.54458e-05
-2.06115e-05
-1.56976e-05
-3.59912e-05
-6.70049e-05
-3.88964e-05
-5.83217e-05
-5.4664e-06
-4.46084e-05
-7.09355e-05
-6.21846e-05
-4.12171e-05
-6.49772e-05
-6.86145e-05
-3.01216e-05
-2.18938e-05
-4.00361e-05
-7.04796e-05
-8.74878e-05
-7.27382e-05
-7.04209e-05
-1.79736e-05
-0.000114936
-5.17162e-05
-7.17655e-05
-7.25605e-05
-4.43032e-05
-6.84493e-05
-9.32265e-05
-3.46838e-05
-8.01351e-05
-6.19862e-05
-5.05829e-05
-4.68775e-05
-4.53714e-06
-4.68769e-05
-3.44414e-05
-3.32258e-05
-3.54251e-05
-3.89738e-05
-5.99816e-05
-2.94574e-05
-6.39733e-05
-7.07956e-05
-5.68261e-05
-0.000111659
-4.76278e-05
-5.6309e-05
-6.29246e-05
-5.6807e-05
-7.44827e-05
-3.4257e-05
-2.01018e-05
-6.02035e-05
-5.06869e-05
-2.89871e-05
-6.16314e-05
-5.72834e-05
-1.4154e-05
-4.30501e-05
-8.85759e-05
-9.86273e-05
-6.87009e-05
-9.1306e-05
-8.39509e-05
-6.82835e-05
-4.04557e-05
-8.11339e-05
-2.07452e-05
-3.23055e-05
-4.06927e-05
-4.07259e-05
-7.19045e-05
-1.78639e-05
-2.01553e-05
-8.0559e-05
-6.45889e-05
-4.53373e-05
-7.19394e-05
-5.53324e-05
3.39845e-06
-7.87971e-05
-6.44866e-05
-0.000115474
-7.15836e-05
-4.15344e-05
-0.000117165
-7.30727e-05
-2.7101e-05
-7.53331e-05
-1.33401e-05
-0.000103885
-0.000102499
-2.69612e-05
-5.68349e-05
-1.2547e-05
-8.727e-05
-4.69554e-05
-5.09689e-05
-1.53229e-05
-5.96391e-05
-5.01158e-05
-2.08033e-05
-3.33829e-05
-2.16222e-05
-7.16093e-05
-3.55816e-05
-2.50731e-05
-7.78921e-05
-6.61496e-05
-3.98522e-05
-3.46766e-05
-3.35174e-05
-5.45358e-05
-4.05672e-05
-5.70205e-05
-3.65743e-05
-3.66066e-05
-3.81814e-05
-3.79634e-05
-3.57976e-05
-6.7446e-05
-8.46198e-05
-4.2972e-05
-7.34288e-05
-5.35021e-05
-4.02477e-05
-4.60232e-05
-4.89172e-05
-6.58169e-05
-5.37104e-05
-5.96394e-05
-4.81822e-05
-3.35408e-05
-6.65171e-05
-6.57849e-05
-6.19228e-05
-5.99471e-05
-5.44707e-05
-6.42817e-05
-4.43551e-05
-3.66263e-05
-4.38835e-05
-5.01632e-05
-2.96946e-05
-3.30631e-05
-8.00163e-05
-1.53618e-05
-6.19138e-05
-3.96383e-05
-9.12342e-05
-2.61226e-05
-9.07479e-05
-5.07132e-05
-5.88794e-05
-7.14119e-05
-3.21949e-05
-4.67027e-05
-4.23802e-05
-6.1817e-05
-7.51256e-05
-4.47426e-05
-4.89862e-05
-2.82921e-05
-3.99001e-05
-2.9008e-05
-1.9127e-05
-5.34297e-05
-6.31985e-05
-7.46604e-05
-3.17607e-05
-3.77632e-05
-7.27655e-05
-4.5307e-05
-3.98303e-05
-6.79813e-05
-6.51854e-05
-3.38989e-05
-6.17648e-05
-2.03253e-05
-7.85025e-05
-7.87747e-05
-8.33135e-05
-5.36766e-05
-6.1939e-05
-4.79473e-05
-6.29078e-05
-7.67329e-05
-1.91711e-05
-2.19042e-05
-2.16556e-05
-3.9664e-05
-4.904e-05
-3.21725e-05
-3.08915e-05
-7.12989e-05
-6.28081e-05
-6.85841e-05
-5.54343e-05
-3.7661e-05
-7.92928e-05
-4.99547e-05
-8.70656e-05
-5.58168e-05
-4.46875e-05
-4.67799e-05
-3.97336e-05
-5.75317e-05
-3.62388e-05
-6.62347e-05
-3.6828e-05
-6.04277e-05
-5.97907e-05
-8.39346e-05
-5.70076e-05
-9.18027e-06
7.99973e-06
-3.04517e-05
-7.25252e-05
-5.59396e-05
-3.6342e-05
-6.27524e-05
-3.67895e-05
-6.49879e-05
-3.838e-05
-1.87763e-05
-4.97924e-05
-7.61519e-06
-7.67789e-05
1.87976e-06
-3.32628e-05
-9.74421e-05
-8.7844e-05
-4.8821e-05
-5.02282e-05
-4.82392e-05
-4.76748e-05
-5.21371e-05
-7.53885e-05
-7.40263e-05
-1.85831e-05
-6.74327e-05
-3.3444e-05
-4.41547e-05
-7.59157e-05
-5.40337e-06
-6.98935e-05
-0.000100516
-8.71034e-05
-5.98588e-05
-9.96057e-06
-6.46327e-05
-3.90313e-05
-5.97537e-05
-6.03671e-05
-4.50502e-05
-1.5044e-05
-4.88952e-05
-5.57962e-05
-7.10016e-05
-6.78187e-05
-5.27422e-05
-3.29749e-05
-2.9733e-05
-4.73511e-05
-3.91712e-05
-4.01048e-05
-4.48684e-05
-2.76605e-05
-2.78271e-05
-2.49469e-05
-7.0319e-05
-3.10758e-05
-7.04408e-05
-5.6818e-05
-3.12814e-05
4.60089e-06
-4.51901e-05
-7.08643e-05
-8.07179e-05
-9.97643e-05
-3.64447e-05
-6.32403e-05
-4.73645e-05
-3.49258e-05
-6.15161e-05
-4.70181e-05
-4.09107e-05
-2.42235e-05
-2.27359e-05
-4.71187e-05
-5.35537e-05
-5.54715e-05
-5.06378e-05
-3.48141e-05
-3.73072e-05
-5.10586e-05
-8.319e-05
-2.95019e-06
-5.33697e-05
-5.84475e-05
-8.64032e-05
-7.89455e-05
-5.66024e-05
-3.28919e-05
-5.78848e-05
-5.69647e-05
-2.71551e-05
-2.24961e-05
-5.09428e-05
-6.38951e-05
-8.18023e-05
-7.0074e-06
-1.96685e-05
-4.34784e-05
-7.01904e-05
-5.75556e-05
-6.12915e-05
-5.57473e-05
-2.46738e-05
-5.11647e-05
-9.72326e-06
-5.04408e-05
-4.63456e-05
-3.04996e-05
-3.50294e-05
-4.03881e-05
-3.68038e-05
-3.64648e-05
-4.26765e-05
-4.07576e-05
-3.66817e-05
-6.15202e-05
-6.30228e-05
-4.58353e-05
-3.60744e-05
-0.000103906
-6.3522e-05
-6.67261e-05
-0.000109009
-0.000104658
-5.9074e-05
-8.8517e-05
-4.83505e-05
-6.52622e-05
-6.95937e-05
-7.84031e-05
-7.19954e-05
-6.88544e-05
-4.6985e-05
-7.01357e-05
-9.12764e-05
-6.79084e-05
-4.38103e-05
-3.24663e-05
-4.45222e-05
-2.52916e-05
-5.98867e-05
-3.85448e-05
-3.11558e-05
-3.78153e-05
-4.30698e-05
-3.51779e-05
-5.17471e-05
-6.52176e-05
-1.89091e-05
-1.81474e-05
-3.09203e-05
-6.56039e-05
-3.05956e-05
-5.68301e-05
-4.09714e-05
-6.2041e-05
-5.78291e-05
-6.14331e-05
-6.46491e-05
-7.03286e-05
-6.55304e-05
-3.07113e-05
-5.57508e-06
-2.44038e-05
-5.9996e-05
-5.87902e-05
-4.5178e-05
-8.63778e-05
-7.8948e-05
-6.52168e-05
-5.97166e-05
-2.1259e-05
-7.53505e-05
-6.24223e-05
-4.59713e-05
-4.31687e-05
-6.34446e-05
-4.32533e-05
-6.78025e-05
-5.18727e-05
-6.76923e-05
-8.3788e-05
-4.66119e-05
1.49137e-05
-3.63872e-05
-5.11345e-05
-3.37698e-05
-8.39858e-05
-5.89864e-05
-5.9182e-05
-0.000103044
-6.81599e-05
-7.51682e-05
-6.16039e-05
-5.19586e-05
-3.32189e-05
-2.68213e-05
-5.10426e-05
-4.26348e-05
-5.52817e-05
-4.40321e-05
-5.91873e-05
-3.64233e-05
-6.59598e-05
-0.000102301
-5.60974e-05
-3.52598e-05
-6.33176e-05
-5.4227e-05
-8.20872e-05
-4.90312e-05
-5.15019e-05
-7.0409e-05
-2.3119e-05
-4.74192e-05
-0.000131106
-6.80989e-05
-9.54355e-05
-7.69762e-05
-5.00812e-05
-5.10191e-05
-6.50047e-05
-6.59762e-05
-4.26609e-05
-0.000108684
-5.1999e-05
-3.92026e-05
-3.38297e-05
-6.2323e-05
-5.72782e-05
-6.65753e-05
-3.66129e-05
-5.85209e-05
-3.75453e-06
-3.91135e-05
-2.14828e-05
-4.25453e-05
-4.27771e-05
-4.47498e-05
-7.12672e-05
-6.07561e-06
-4.82963e-05
-6.56923e-05
-9.19747e-05
-6.5995e-05
-1.88231e-05
-4.13171e-05
-4.98709e-05
-1.79812e-05
-6.12638e-05
-0.000126884
-3.56959e-05
-5.798e-05
-4.20968e-05
-2.35542e-05
-2.75881e-06
-8.65651e-05
-8.48309e-05
-1.48187e-05
-6.59481e-05
-3.68089e-05
-5.713e-05
-2.14972e-05
-3.09798e-05
-2.98559e-05
-3.18383e-05
-8.60276e-05
-5.05829e-05
-2.3707e-05
-5.71386e-05
-2.68451e-05
-5.22304e-05
-7.00611e-05
-3.97843e-05
-4.35497e-05
-1.34869e-05
-7.14886e-05
-8.48559e-06
-5.66431e-05
-4.35828e-05
-4.09489e-05
-5.16177e-05
-6.59727e-05
-0.000102306
-4.99356e-05
-5.06404e-05
-5.11429e-05
-3.09013e-05
-6.92938e-05
-2.26025e-05
-3.93833e-05
-7.64082e-05
-6.44987e-05
-5.6183e-05
-7.97484e-05
-6.74419e-05
-5.44628e-05
-5.84143e-05
-5.40528e-05
-7.00395e-05
-2.41039e-05
-6.96965e-05
-3.85134e-05
-8.92531e-05
-3.37353e-05
-5.41608e-05
-3.01393e-05
-1.07268e-05
-4.62035e-05
-5.75225e-05
-2.82869e-05
-4.29976e-05
-7.53897e-05
-3.63983e-05
-9.64864e-05
-8.61975e-05
-6.96163e-05
-7.94826e-05
-8.11948e-05
-9.81219e-05
-9.21547e-05
-7.83481e-05
-4.84212e-05
-5.87507e-05
-3.26355e-05
-6.06725e-05
-3.9444e-05
-5.26913e-05
-7.13693e-05
-5.43532e-05
-5.26398e-05
-6.05265e-05
-4.14455e-05
-6.61786e-05
-3.69223e-05
-7.33803e-05
-6.68518e-05
-7.17006e-05
-6.33594e-05
-2.75238e-05
-5.24406e-05
-2.77404e-05
-9.11778e-05
-4.32299e-05
-8.44752e-05
-2.87896e-05
-7.15875e-05
-8.26834e-05
-2.85352e-05
-7.46139e-05
-3.61892e-05
-3.58318e-05
-6.3596e-05
-4.69322e-05
-8.47878e-05
-3.51926e-05
-6.58661e-05
-2.79529e-05
-5.80843e-05
-4.17029e-05
-5.54066e-05
-3.61344e-05
-4.40959e-05
-5.68296e-05
-6.82099e-05
-6.88262e-05
-2.53125e-05
-4.35449e-05
-6.54241e-05
-2.58108e-05
-3.50224e-05
-4.79457e-05
-5.63417e-05
-5.60045e-05
-5.09767e-05
-9.93081e-05
-8.88576e-05
-5.67891e-05
-2.6273e-05
-5.46882e-05
-7.78355e-05
-6.07548e-05
4.49231e-06
-3.15585e-05
-6.04645e-05
1.3164e-05
-4.07441e-05
-7.23059e-05
-5.53632e-05
-4.54291e-05
-7.72208e-05
-4.6016e-05
-4.17632e-05
-5.91481e-05
-2.32207e-05
-1.03367e-05
-4.75436e-05
-2.21813e-05
-3.70549e-05
-5.6774e-05
-8.48908e-05
-7.46706e-05
-6.33101e-05
-2.77536e-05
-8.61105e-05
-5.2119e-05
-5.18063e-05
-7.82028e-05
-1.48724e-05
-3.37975e-05
-3.28023e-05
-2.56944e-05
-8.47785e-05
-7.37318e-05
-8.16258e-05
-5.44153e-05
-2.72508e-05
-5.38046e-05
-6.3598e-05
-9.89656e-05
-5.86703e-05
-6.22161e-05
-9.89657e-05
-5.80826e-05
-2.96925e-05
-7.94956e-05
-5.33331e-05
-1.88825e-05
-4.99187e-05
-4.01173e-05
-6.17941e-05
-6.47679e-05
-5.11485e-05
-5.03977e-05
-1.63431e-05
-3.67712e-05
-4.59123e-05
-7.57642e-05
-4.00425e-05
-8.87511e-05
-9.21752e-05
-5.73425e-05
-3.39904e-05
-2.5924e-05
-4.77725e-05
-9.05971e-05
-1.72519e-05
-6.1178e-05
-6.01704e-05
-2.48228e-05
-9.31469e-05
-8.84186e-05
-6.67904e-05
-5.73226e-05
-2.3849e-05
-3.54046e-05
-4.0854e-05
-4.01302e-05
-3.59025e-05
-2.88667e-05
-5.43242e-05
-8.92063e-05
-3.95799e-05
-6.91169e-05
-7.01433e-05
-7.94698e-05
-5.49953e-05
-3.9154e-05
-3.14313e-05
-4.53001e-05
-5.53302e-05
-5.5217e-05
-3.07369e-05
-2.51765e-05
-6.04603e-05
-7.07029e-05
-7.38716e-05
-5.41335e-05
-4.87425e-05
-6.5743e-05
-5.81231e-05
-5.23183e-05
-2.34799e-05
-6.42233e-05
-2.77026e-05
-7.70255e-05
-3.93424e-05
-7.5591e-05
-6.63213e-05
-5.72469e-05
-8.61499e-05
-4.59776e-05
-6.53363e-05
-8.10412e-05
-3.90503e-05
-4.56782e-05
-7.9717e-05
-5.55107e-05
-3.69839e-05
-4.41244e-05
-4.15614e-05
-2.0133e-05
-3.16797e-05
-8.49963e-05
-7.13898e-05
-7.82896e-05
-9.66986e-05
-3.1138e-05
-8.50014e-05
-2.2329e-05
-4.99598e-05
-6.00457e-05
-6.84957e-05
-3.84909e-05
-7.24083e-05
-3.15188e-05
-2.63917e-05
-1.22783e-05
-7.50956e-05
-8.83493e-05
-6.27988e-05
-5.28871e-05
-1.45471e-05
-3.90194e-05
-5.28232e-05
-5.65348e-05
-7.95703e-05
-9.73559e-05
-6.33377e-05
-2.45003e-05
-2.70539e-05
2.46067e-05
-0.000136427
-6.44684e-05
-5.38456e-05
-5.3699e-05
-6.70582e-05
-5.15685e-05
-6.74e-05
-8.66707e-05
-4.31306e-05
-6.55013e-05
-6.93329e-06
-1.97532e-05
-5.73937e-05
-3.88684e-05
-4.7566e-05
-5.54427e-05
-0.000101677
-5.3192e-05
-3.21736e-05
-2.7384e-05
-5.13353e-05
-5.54554e-05
-6.60458e-05
-5.54214e-05
-2.8938e-05
-4.31624e-05
-5.94919e-05
-6.24528e-05
-5.4988e-05
-7.46585e-05
-6.00742e-05
-1.63041e-05
-4.58367e-05
1.02118e-05
-2.28931e-05
-6.60263e-05
-4.2409e-05
-5.35603e-05
-5.18167e-05
-5.44749e-05
-6.48041e-05
-5.95755e-05
-8.47552e-06
-7.88363e-05
-4.21819e-05
-1.37502e-05
-2.06103e-05
-4.68416e-05
-6.37181e-05
-4.36034e-05
-2.71344e-05
-7.36826e-06
-3.1689e-05
-6.84332e-05
-2.40321e-05
-6.6124e-05
-3.32381e-05
-3.7898e-05
-3.87317e-05
-3.82399e-05
-4.99917e-05
-3.71013e-05
-1.36171e-05
-2.58225e-05
-6.29493e-05
-5.22234e-05
-5.06288e-05
-5.91533e-05
-3.72334e-05
-4.29938e-05
-6.54819e-06
-4.03661e-05
-3.50159e-05
-5.17678e-05
-2.75328e-05
-6.15464e-05
-4.5753e-05
-9.80127e-05
-5.99154e-05
-5.14768e-05
-8.401e-05
-6.27712e-05
-3.98274e-05
-0.000116732
-7.48564e-05
-4.19138e-05
-9.46043e-06
-5.52299e-05
-7.26258e-05
-7.63445e-05
-6.00705e-05
-7.98931e-05
-1.72273e-05
-5.76325e-05
-3.30539e-05
-3.18942e-05
-4.0913e-05
-1.72497e-05
-2.69841e-05
-4.13557e-05
-4.90577e-05
-4.34224e-05
-9.06476e-05
-1.58023e-05
-9.98325e-05
-3.3553e-05
-4.23828e-05
-1.93004e-05
-5.00513e-05
-5.14195e-05
-2.78403e-05
-4.92006e-05
-7.26965e-05
-7.46666e-05
-5.07674e-05
-6.14668e-05
-4.68796e-05
-3.37291e-05
1.74967e-06
-4.48323e-06
-3.57355e-05
-5.79398e-05
4.03514e-06
-5.70401e-05
-6.33726e-05
-8.13362e-05
-2.63865e-05
-4.71586e-05
-3.28681e-05
-5.01805e-05
-6.6688e-05
-2.76572e-05
-2.44077e-05
-2.36974e-05
-1.89916e-05
-6.40971e-05
-5.97193e-05
-2.98357e-05
-2.48892e-05
-5.64306e-05
-4.30353e-05
-1.16942e-05
-3.38043e-05
-4.28307e-05
-5.06164e-05
-5.98224e-05
-9.26269e-06
-7.41273e-05
-5.70253e-05
-6.27106e-05
-6.01795e-05
-3.03832e-05
-7.75567e-05
-4.18414e-05
-6.10987e-05
-4.24107e-05
-5.59967e-05
-7.35614e-05
-3.80323e-05
-7.08262e-05
-1.81856e-05
-6.34006e-05
-4.91571e-05
-2.14866e-05
-5.43643e-05
-4.37451e-05
-2.74208e-05
-5.07755e-05
-7.13141e-05
-1.80517e-05
1.31216e-05
-6.26139e-05
-9.20429e-05
-2.11384e-05
-4.56061e-05
6.77874e-06
-2.36438e-05
-6.74385e-05
-6.74726e-05
-4.24761e-05
-7.18611e-05
-4.54453e-05
-2.09329e-05
-3.56794e-05
-3.53032e-05
-3.27345e-05
-4.05384e-05
-5.3772e-05
-4.63607e-05
-3.71386e-05
-3.10779e-05
-1.39192e-05
-2.78565e-05
-5.54667e-05
-8.42637e-05
-5.42143e-05
-4.80216e-05
-7.78877e-05
-4.83366e-05
-6.90238e-05
-6.15618e-05
-8.20021e-05
-3.10289e-05
-6.6881e-05
-3.94158e-05
-6.04342e-05
-6.49801e-05
-4.43824e-05
-3.36273e-05
-5.44524e-05
-9.23992e-05
-8.1842e-05
-2.88024e-05
-2.25815e-05
-9.44194e-05
-5.29995e-05
-5.75796e-05
-3.61092e-05
-4.66773e-05
-4.78118e-05
-2.27949e-05
-2.65281e-05
-5.49934e-05
-9.78202e-06
-5.10241e-05
-8.40386e-05
-4.43864e-05
-6.39099e-05
-4.0441e-05
-6.29367e-05
-1.44566e-05
-7.63193e-05
-4.09091e-05
-3.42411e-05
-4.21448e-05
-4.43605e-05
-4.54405e-05
-7.12126e-05
-4.31454e-05
-2.03967e-05
-6.45761e-05
-5.17355e-05
-1.64919e-05
-4.84875e-05
-7.13701e-05
-4.47941e-05
-2.49606e-05
-5.42434e-05
1.05411e-05
-7.18771e-05
-9.44777e-05
-5.46018e-05
-3.38737e-05
-3.06712e-05
-6.87821e-05
-5.92741e-05
-5.12333e-05
-7.34568e-05
-6.34181e-05
-1.08023e-05
-4.1953e-05
-3.39122e-05
-8.38494e-05
-1.65941e-05
-3.70972e-05
-9.44273e-06
-3.67656e-05
-5.44566e-05
-5.68381e-05
-5.2846e-05
-5.0914e-05
-4.84498e-05
-6.90844e-05
-7.16612e-05
-8.97954e-05
-6.72877e-05
-6.58638e-05
-3.64434e-05
-4.69547e-05
-6.66121e-05
-6.00107e-05
-4.27533e-05
-6.30491e-05
-5.74652e-05
-7.40024e-05
-0.000101754
-8.09611e-05
-4.71375e-05
-6.07328e-05
-3.79566e-05
-1.33784e-05
-5.55198e-05
-3.1687e-05
-4.09947e-05
-4.16528e-05
-4.09989e-05
-7.24507e-05
-7.37968e-05
-4.145e-05
-4.9438e-05
-7.62116e-05
-2.57325e-05
-4.59687e-05
-4.81812e-05
-4.94666e-05
-4.45779e-05
-5.88581e-05
-7.76665e-05
-7.05862e-05
-7.06616e-05
-5.63029e-05
-5.77224e-05
-1.52563e-05
-3.28098e-05
-4.27627e-05
-4.65716e-05
-5.31359e-05
-6.43926e-05
-9.34895e-05
-7.24125e-05
-8.09782e-05
-6.01269e-05
-5.03645e-05
-4.54159e-05
-3.91566e-05
-5.86784e-05
-3.91441e-05
-4.97989e-05
-3.02471e-05
-4.76795e-05
-5.11597e-06
-3.03997e-05
-5.47867e-05
-3.52252e-05
-3.74915e-05
-4.40003e-05
-6.70609e-05
-5.30771e-05
-7.1599e-05
-4.01444e-05
-3.03347e-05
-5.828e-05
-4.06732e-05
-3.60415e-05
-4.54086e-05
-8.10794e-05
-4.92395e-05
-5.83992e-05
-5.78143e-05
-4.53985e-05
-5.79608e-05
-4.86433e-05
-3.62756e-05
-3.59149e-05
-2.26708e-06
-5.72788e-05
-6.58457e-05
-6.83318e-05
-3.42691e-05
-6.18635e-05
-5.11769e-05
-3.62952e-05
-3.47704e-05
-6.79991e-05
-5.06898e-05
-5.46089e-05
-4.07223e-05
9.02276e-06
-4.31282e-05
-5.12697e-05
-6.1288e-05
-5.05591e-05
-5.82546e-05
-6.26403e-05
-2.67051e-05
-2.78431e-05
-5.23034e-05
-8.14749e-06
-3.73148e-05
-1.95068e-05
-7.15635e-05
-3.436e-05
-7.37296e-05
-5.96545e-05
-4.34043e-05
-3.11817e-05
-3.75486e-05
-5.78074e-05
-5.44106e-05
-2.90501e-06
-3.88284e-05
-3.17651e-05
-5.20824e-05
-5.46776e-05
-4.67909e-05
-3.36773e-05
-2.93365e-05
-4.12286e-05
-6.80001e-05
-1.70786e-05
-5.17814e-05
-2.6829e-05
-5.40276e-05
-9.0194e-05
-4.6308e-05
-6.42063e-05
-3.1523e-05
-4.7401e-05
-2.35789e-05
-3.31467e-05
-1.7552e-05
-1.29226e-05
-3.99936e-05
-4.95898e-05
-2.42774e-05
-5.87605e-05
-5.26688e-05
-2.84372e-05
-2.84799e-05
-3.58928e-05
-4.34423e-05
-5.14861e-05
-4.05676e-05
-3.98426e-05
-6.15526e-05
-2.73254e-05
-3.21943e-05
-6.84177e-05
-8.23125e-05
-1.5903e-05
-2.54073e-05
-8.52297e-06
-4.76054e-05
-6.36277e-05
-6.93184e-05
-1.16641e-07
-3.21651e-05
-3.20702e-06
-6.74398e-05
-9.35021e-05
-7.04251e-05
-6.69512e-05
-5.19622e-05
-8.41614e-05
-4.97966e-05
-4.80153e-05
-2.76834e-05
-4.14523e-05
-1.20065e-05
-5.35481e-05
-2.1959e-05
-6.65271e-05
-1.78132e-05
-2.18812e-05
-4.19523e-05
-2.24623e-05
-4.17004e-05
-5.83531e-05
-3.39159e-05
-1.64343e-05
-4.83852e-05
-0.000100079
-4.59976e-05
-3.91131e-05
-9.28749e-05
-2.04306e-05
-4.90097e-05
-5.07297e-05
-5.26371e-05
-7.5632e-05
-6.33931e-05
-4.11609e-05
-2.87305e-05
-0.000101752
-8.2086e-05
-5.34683e-05
-2.01955e-05
-2.91641e-05
-4.46119e-05
-3.66902e-05
-5.04464e-05
-4.19976e-05
-2.4565e-05
-4.0103e-05
-2.02746e-05
-3.54319e-05
-4.14217e-05
-9.71707e-05
-6.00976e-05
-2.4687e-05
-6.8464e-05
-4.21226e-05
-1.97082e-05
-4.01226e-05
1.97572e-06
-2.04728e-05
-2.50017e-05
-5.11519e-05
-5.81904e-05
-4.6157e-05
-9.61015e-05
-4.07617e-05
-4.01375e-05
-1.97823e-05
-5.53801e-05
-5.25836e-05
-2.6838e-05
-9.00939e-05
-4.48929e-05
-4.25685e-05
-4.32618e-05
-3.71567e-05
-4.10279e-05
-2.8898e-05
-5.90841e-05
-6.035e-05
-3.95536e-05
-6.78679e-05
-6.67743e-05
-3.1648e-05
-4.4684e-05
-1.7962e-05
-5.51956e-05
-2.54253e-05
-3.43547e-05
-3.33883e-05
-3.8539e-05
-3.2167e-05
-6.43919e-05
-1.91262e-05
-6.66785e-05
-2.91348e-05
-3.30687e-05
-3.9444e-05
-4.20032e-05
-1.63515e-05
-2.56344e-05
-2.55737e-05
-3.56845e-05
-1.88287e-05
-6.51214e-06
-3.43614e-05
-6.1344e-05
-9.27129e-06
-3.58132e-05
-1.79585e-05
-4.05472e-05
-5.29291e-05
-1.90736e-05
-8.26202e-05
-6.26565e-05
-5.16211e-05
-3.77346e-05
-4.97026e-05
-7.66267e-05
-3.60099e-05
-3.70986e-05
-6.34669e-05
-8.33303e-05
-4.79484e-05
-4.45059e-05
-1.55539e-05
-1.3198e-05
-7.1992e-05
-9.21429e-05
-7.81012e-05
-5.04391e-05
-5.75397e-05
-4.91077e-05
-3.97412e-05
-4.38993e-05
-7.30348e-05
-4.24879e-05
-6.15844e-05
-8.32009e-05
-2.16071e-05
-3.61271e-05
-7.01416e-05
-6.56787e-05
-3.29723e-05
-2.95932e-05
-4.65267e-05
-3.02043e-05
-7.56517e-05
-6.79978e-05
-2.86716e-05
-1.27802e-05
-5.12572e-05
-2.14662e-05
-6.05774e-05
-5.74924e-05
-5.50843e-05
-7.31979e-05
-3.96021e-05
-7.61097e-05
-8.71522e-05
-2.91218e-05
-3.63822e-05
-3.4542e-05
-4.65826e-05
-4.9059e-05
-6.55503e-05
-3.59438e-05
-4.92655e-05
-5.66885e-05
-2.66507e-05
-4.13647e-05
-4.14515e-05
-7.04421e-05
-1.04952e-05
-5.47108e-05
-5.414e-05
-4.98136e-05
-6.7396e-05
-6.46605e-05
-7.25156e-05
-4.33094e-05
-4.85734e-05
-5.73622e-05
-6.653e-05
-7.11365e-05
-6.9155e-05
-7.29089e-05
-3.53478e-05
-5.09779e-05
-4.96815e-05
-6.53474e-05
-4.68285e-05
-2.54436e-05
1.25516e-06
-3.34787e-05
-2.21546e-05
-4.06125e-05
-6.26649e-05
-4.85605e-05
-6.77751e-05
-5.25495e-05
-3.93619e-06
-6.01614e-05
-6.73277e-05
-2.9983e-05
-3.80952e-05
-6.14383e-05
-4.30984e-05
-2.72905e-05
1.01003e-06
-7.39684e-05
-3.53499e-05
-7.01515e-05
-7.89812e-05
-5.61985e-05
-3.18291e-05
-3.72566e-05
-4.30772e-05
-6.89345e-05
-3.35015e-05
-5.79905e-05
-4.10816e-05
-4.50166e-05
-6.33446e-05
-7.80097e-05
-8.60523e-05
-3.28012e-05
-4.49304e-05
-5.84944e-05
-4.18128e-05
-3.93027e-05
-5.65634e-05
-5.33353e-05
-5.83403e-05
-2.20089e-05
-2.70536e-05
-4.08387e-05
-3.79352e-05
-2.43773e-05
-5.4515e-05
-5.73874e-05
-2.24911e-05
-5.06959e-05
-5.3752e-05
-5.82852e-05
-3.92141e-05
-4.55552e-05
-5.70064e-05
-2.99745e-05
-4.51768e-05
-2.89295e-05
-6.05394e-05
-1.07572e-05
-7.27384e-05
-6.43488e-05
-4.17036e-05
-3.6594e-05
-1.19718e-05
-8.49775e-05
-4.76668e-05
-4.87018e-05
-3.04307e-05
-4.86595e-05
-8.62275e-05
-3.16553e-05
-8.56632e-05
-5.05347e-05
-8.15687e-05
-5.81651e-05
-4.27011e-05
-1.70094e-05
-5.72904e-05
-6.99545e-05
-6.40806e-05
-5.46869e-05
-3.60444e-05
-6.27864e-05
-6.04796e-05
-6.60437e-05
-8.25014e-05
-6.55895e-05
-4.14502e-05
-4.88414e-05
-3.46375e-05
-5.8383e-05
-6.55761e-05
-2.0925e-05
-3.32751e-05
-7.51821e-05
-4.38807e-05
-1.62498e-05
-3.27597e-05
-4.2552e-05
-4.31416e-05
-5.96121e-05
-5.38361e-05
-4.18581e-05
-2.43756e-05
-3.87168e-05
-1.79793e-05
-6.6623e-05
-6.30159e-05
-8.85167e-05
-3.79383e-05
-5.9164e-05
-3.71132e-05
-8.59461e-06
-3.81581e-05
-2.54677e-05
-3.41842e-05
-1.11319e-05
-1.5846e-05
-2.56147e-05
-6.82274e-05
-4.30151e-05
-4.21524e-05
-5.35494e-05
-2.9171e-05
-4.46345e-05
-4.47084e-05
-4.13559e-05
-3.46252e-05
-3.4063e-05
-5.57435e-05
-5.97045e-05
-5.20353e-05
-1.97382e-05
-7.6974e-05
-6.37336e-05
-3.70537e-05
-1.48005e-05
-4.84839e-05
-5.05268e-05
-2.53676e-05
-4.56898e-05
-5.1193e-05
-4.68857e-05
-7.00072e-05
-4.97694e-05
-4.72807e-05
-6.64291e-05
-4.36843e-05
-7.23324e-06
-3.00148e-05
-2.97941e-05
-5.7629e-05
-2.31842e-05
-5.58285e-05
-6.04745e-05
-7.0645e-05
-7.67595e-05
-7.88544e-05
-7.02752e-05
-8.54257e-05
-3.48118e-05
-3.83055e-05
-5.33355e-05
-1.40098e-05
-4.60131e-05
-5.76223e-05
-4.19731e-05
-5.17383e-05
-2.59506e-05
-3.52589e-05
-1.791e-05
2.23767e-05
-1.4187e-05
-4.65472e-05
-6.43378e-05
-3.61156e-05
-5.93186e-05
-3.9581e-05
5.94492e-06
-3.00836e-05
-4.83737e-05
-4.31618e-05
-5.73336e-05
-5.1926e-05
-5.87034e-05
-3.9135e-05
-4.70893e-05
-3.99346e-05
1.89203e-06
-4.71559e-05
-4.4004e-05
-5.67761e-05
-4.20964e-05
-5.46095e-05
-5.11861e-05
-7.00654e-05
-6.67173e-05
-3.33569e-05
-4.28298e-05
-6.07449e-05
-6.88546e-05
-1.10435e-05
-4.60547e-05
-5.09019e-05
-1.86604e-05
-2.52112e-05
-4.93828e-05
-6.48165e-05
-7.15616e-05
-4.00706e-05
-5.36942e-05
-6.48648e-05
-4.46782e-05
-2.41488e-05
-3.12461e-05
-5.89457e-05
-6.02336e-05
-2.90218e-05
-5.0443e-05
-6.33327e-05
-4.1362e-05
-4.22068e-05
-3.24395e-05
-3.18895e-05
-2.91857e-05
-5.62167e-05
-2.11371e-05
-5.75541e-05
-0.000116955
-2.97545e-05
-5.58758e-05
-5.8151e-05
-4.0642e-05
-1.86498e-05
-5.35677e-05
-9.33901e-06
-5.26069e-05
-2.96214e-05
-3.90018e-05
-8.47517e-05
-6.37424e-05
-6.89939e-05
-8.68277e-05
-6.32877e-05
-5.77488e-05
-1.8079e-05
-3.77414e-05
-9.72166e-05
-8.42742e-05
-6.01829e-05
-4.09146e-05
-4.61231e-05
-6.71291e-05
-2.69562e-05
-9.7039e-06
-4.16734e-05
-4.56003e-05
-2.4365e-05
-4.81418e-05
-8.228e-06
-4.53721e-05
-2.40771e-05
-4.89512e-05
-6.22785e-05
-4.51497e-05
-8.08052e-05
-3.00064e-05
-2.05785e-05
-4.57991e-05
-7.1353e-05
-5.25663e-05
-4.03501e-05
-4.15469e-05
-6.2357e-05
-6.32937e-05
-7.47141e-05
-3.31667e-05
-4.42525e-05
-5.72655e-06
-8.05419e-05
-5.55965e-05
-4.86208e-05
-6.37145e-05
-4.15996e-05
-5.01607e-05
-2.46723e-05
-3.21394e-05
-5.41123e-05
-1.43152e-05
-2.71349e-05
-9.93958e-05
-8.01268e-05
-5.41921e-05
-3.48624e-05
-2.74124e-05
-4.12214e-05
-1.20013e-05
-3.54371e-05
-3.42562e-05
-4.84689e-05
-8.34213e-05
-2.2866e-05
-2.65669e-05
-1.68426e-05
-3.1577e-05
-2.59893e-05
-7.51631e-05
-5.2497e-05
-9.11213e-05
-7.78911e-05
-3.1586e-06
-6.48564e-05