# vtk DataFile Version 1.0
Net Charge Density
ASCII
DATASET STRUCTURED_POINTS
DIMENSIONS 256 128 1
ORIGIN 0 0 0
SPACING 0.15625 0.15625 1
POINT_DATA 32768
SCALARS rhonet float
LOOKUP_TABLE default
-8.89964e-05
-0.00016443
6.73248e-05
0.000180924
3.86336e-06
0.000191472
3.31746e-05
-3.29299e-05
0.000211425
0.00020405
2.30233e-05
0.000279595
0.000127751
-0.000183836
-0.000216214
0.000243326
0.000142679
-9.86999e-05
-2.87003e-05
2.38949e-05
4.87629e-06
0.000126141
-8.77731e-05
5.35577e-05
9.73921e-05
2.4774e-05
7.28209e-05
7.3313e-05
0.000266094
4.45558e-05
-0.000187995
-0.000141228
0.000138519
0.00019782
4.20049e-05
0.000104592
0.000146124
-7.05899e-05
3.89594e-05
2.23198e-05
0.000178941
0.00013508
8.85106e-05
0.000102748
0.000125256
6.338e-06
2.51115e-05
8.20985e-05
5.31515e-05
0.000119897
0.000161602
-1.11037e-05
0.00015061
0.00017972
-9.16775e-05
-3.29587e-05
-3.99989e-05
0.000187686
0.000135206
0.000108327
-0.000173156
0.000276285
0.000165612
-3.8438e-05
-0.000121112
5.01913e-05
-8.66072e-05
0.000157549
1.51983e-05
-7.60974e-05
-6.64496e-05
-0.000151567
-3.41685e-05
0.000301609
7.66135e-05
-4.76977e-05
6.83877e-05
0.000145776
6.34148e-05
1.53662e-05
-0.000111347
-6.43474e-05
0.000307742
0.000107895
0.000156533
0.000151515
0.00018837
-0.000153581
0.000203115
0.000314539
8.47188e-05
-5.6747e-05
3.65102e-06
4.219e-05
-1.17718e-05
0.000185573
-6.01253e-05
9.25151e-05
-0.000105055
0.000513904
0.000181121
-4.06468e-05
0.000103039
-1.57754e-05
1.81862e-05
0.000185247
1.56637e-05
-3.30391e-05
3.95838e-05
-5.65073e-05
9.67322e-05
0.000135004
-7.10147e-05
-0.000116246
-0.000293087
-1.20507e-05
0.000196575
0.000161801
1.39733e-05
-0.000188641
5.74626e-05
1.23905e-05
6.46162e-05
4.70164e-05
1.39865e-05
-2.69532e-05
8.53456e-05
2.44341e-05
0.00018368
2.48258e-05
3.655e-05
0.000122553
9.48429e-05
-3.01065e-05
9.04197e-05
5.78713e-05
0.000279149
0.000120272
0.000106484
-0.000217122
-4.58141e-06
6.54794e-05
-4.9267e-06
4.9301e-05
-3.99719e-05
0.00010235
0.000168811
-3.91196e-05
3.76489e-05
0.000252592
-8.82366e-05
-4.82018e-05
0.000177523
0.000274355
0.000128819
6.23012e-05
0.000135927
8.18423e-06
4.77409e-05
6.06258e-05
0.000130788
0.000107804
-8.37166e-05
9.65773e-05
-5.18437e-05
-0.000102245
0.000160798
0.000218389
0.000229294
4.46852e-05
-5.02178e-05
-2.03331e-06
-6.93277e-06
-3.22649e-05
9.88857e-05
0.000118853
0.000188594
-3.82814e-05
-0.000114186
9.3081e-05
0.000170247
0.000170585
-5.9947e-05
-0.000114894
3.01115e-05
0.000124835
0.000147015
0.000125632
0.000105982
0.000260402
0.000187682
0.000105557
7.29118e-05
-8.07224e-05
-0.000155445
0.000304989
0.000208997
3.35148e-05
0.000190698
6.13416e-06
7.67189e-06
1.51945e-05
0.000192278
8.82995e-05
-0.000104467
0.00014671
-5.74149e-05
-8.37923e-06
-8.24681e-05
0.000302362
-2.5673e-05
-0.00012002
0.00013921
0.000212545
-6.37455e-06
-5.47465e-05
3.51252e-05
5.77911e-05
4.46553e-05
0.000108326
-9.93181e-05
-0.000142599
0.000304249
8.57083e-05
-0.000139695
0.000208727
-8.71238e-05
6.9972e-05
-0.000209231
3.65506e-05
0.000211047
-0.000121397
-8.78274e-05
0.000243595
0.000104742
7.16867e-05
0.000175833
-8.41687e-05
0.000117092
0.000292925
3.00537e-05
-0.000198833
0.000113081
8.61073e-05
0.000117134
0.000126007
4.07926e-05
2.43264e-05
0.000117619
-7.49773e-06
6.64267e-05
-0.000182699
-1.102e-05
-0.000116789
-5.03099e-05
0.000113212
9.38514e-05
7.11053e-06
-1.07242e-06
-0.000114282
1.30754e-05
-9.59642e-05
-0.000187829
-1.47213e-05
0.000141968
-0.000105543
-2.11768e-05
0.000159347
-6.05981e-05
-0.000104908
-0.000191295
-3.15235e-05
2.67865e-05
-8.83369e-05
2.81919e-05
6.0301e-05
-2.11126e-05
-0.000153984
-6.70971e-06
-0.000122243
-5.28991e-05
-0.000213783
8.63425e-05
2.43845e-05
1.32923e-06
-1.46828e-05
-4.76744e-05
0.000114568
-3.24087e-05
-5.61273e-06
-1.98616e-05
-3.69211e-05
-3.4828e-06
-0.000116264
-5.25558e-05
-1.27102e-06
-2.64914e-05
-0.000104853
-3.60254e-05
8.13327e-05
-0.000105781
-0.000144953
7.52907e-05
4.11212e-05
-2.63745e-05
3.98705e-05
-9.3158e-05
4.86263e-05
8.56118e-07
4.31878e-06
-0.000119127
-7.30145e-05
6.05755e-05
2.74999e-05
-0.000101008
6.03884e-05
-2.35738e-05
-0.000135273
-4.44602e-06
1.76309e-05
-0.000143069
5.91767e-05
-6.20366e-06
4.06072e-05
8.06637e-05
-7.9919e-05
3.64549e-05
-5.82085e-05
-9.3237e-06
5.90803e-05
4.19957e-05
3.69134e-05
-4.19621e-05
-5.43682e-05
3.41018e-05
-4.67335e-05
-0.0001537
-6.71793e-05
6.00312e-05
-4.68123e-05
-3.43906e-05
-8.82394e-05
4.55757e-05
-0.000176052
1.12816e-05
-0.00015407
-0.000127912
-9.47625e-05
-6.21469e-05
-4.80891e-05
5.24872e-05
-3.36848e-06
-0.000122984
4.3098e-05
-0.000154295
6.53999e-05
-0.00010901
-7.15224e-05
-5.46536e-05
0.000123682
-2.6908e-05
3.08175e-05
-0.000163153
0.000118408
-4.62126e-05
-0.000235137
-5.79343e-05
-7.17839e-05
-0.000163479
5.96767e-05
1.61466e-05
-7.24102e-05
2.98849e-05
-4.80519e-05
-4.5863e-05
-7.19624e-05
-3.38638e-05
-0.000109087
7.39484e-05
9.90366e-05
3.7502e-05
8.90731e-05
1.56958e-05
-6.02785e-05
2.84287e-05
-7.58178e-05
-6.37132e-05
0.000168836
-6.88587e-05
-0.000162257
2.27817e-05
1.59477e-06
-7.4554e-05
-0.000121428
-1.7772e-06
-0.000190662
0.000107859
0.000110056
-2.80036e-05
-1.88081e-05
-0.000179983
-8.35261e-05
9.67801e-05
8.11357e-06
6.51629e-05
0.000115119
-8.75526e-05
-5.66707e-05
4.4885e-05
-0.000137129
-9.15062e-05
-0.000117078
7.77815e-05
-6.16321e-05
-7.80417e-05
-4.38606e-05
6.10384e-05
-0.000105036
5.42322e-05
3.28158e-05
8.62762e-05
-5.37981e-05
-4.0635e-05
1.56851e-05
-4.02803e-05
-0.000211141
2.38115e-05
0.000203274
-1.50737e-05
4.13633e-05
-8.67897e-05
-6.52752e-05
3.89041e-05
-0.000102638
1.51226e-05
-4.97355e-05
-2.76992e-05
2.26516e-05
-3.52245e-05
-0.000176033
-0.000125343
-3.131e-05
-3.65661e-07
-0.000170566
-4.75532e-05
-5.78198e-05
-0.000183783
-2.11974e-05
5.88741e-05
5.74067e-06
-3.58101e-05
-5.21948e-06
-8.06736e-05
-0.000193738
-0.000104422
-3.91721e-05
4.23498e-05
-9.05198e-05
-7.62013e-05
-8.52766e-06
0.000146161
-0.000152343
-5.9685e-05
9.52003e-05
-0.000116926
9.23366e-05
-9.78986e-05
-1.47191e-05
0.000151847
2.3779e-05
-7.93706e-05
-2.8291e-05
-1.92884e-05
-2.44338e-05
-0.000142312
0.00010553
4.18116e-05
1.36642e-05
-1.15989e-05
-2.04685e-05
-2.06172e-07
-1.97629e-05
2.1121e-05
0.000109334
-0.000261438
4.28507e-05
4.00639e-05
-7.67e-05
-6.17964e-05
-1.02727e-05
-0.000159574
-8.18928e-05
7.35668e-05
-4.22972e-05
9.23197e-06
-1.98808e-05
9.94559e-06
-8.87318e-07
-5.61636e-05
-3.99554e-05
-5.35056e-05
-0.000102719
9.00062e-05
-0.000219845
-0.000120905
-5.90221e-05
4.97606e-05
-3.80757e-05
-1.36702e-05
-2.83075e-06
-8.34796e-05
1.19549e-05
-7.01745e-05
-3.1739e-05
1.34767e-05
5.83421e-05
-0.000137647
-8.99407e-05
0.000151386
1.51163e-05
-6.14114e-06
-0.000129065
3.11777e-05
0.000173844
-0.000137103
4.43449e-05
0.000100966
9.51404e-06
9.34256e-06
4.56321e-05
-4.52999e-05
0.000231801
-1.65905e-05
-9.65686e-05
0.000247102
-6.24575e-05
-9.62116e-05
4.41672e-05
-6.7814e-05
-9.3994e-05
-3.89072e-05
6.94155e-05
5.60173e-05
3.48889e-05
-0.000183194
5.50061e-05
9.55168e-05
2.66579e-05
-3.39593e-05
0.000120549
5.0033e-06
-7.52774e-05
0.000127643
-7.99585e-05
-8.11344e-05
-0.000202427
6.17068e-05
-9.95564e-05
-5.43235e-05
-5.94809e-05
-9.60131e-05
0.000116063
-0.000147444
1.14925e-05
-7.43303e-05
0.000155804
7.66399e-05
-6.99934e-05
7.37102e-05
-2.04367e-05
-8.9596e-05
9.62394e-05
-3.38339e-05
-3.49063e-05
4.17585e-05
0.000162894
3.63599e-05
8.77912e-05
-3.58357e-05
-2.20579e-05
-3.02272e-06
-1.37133e-05
3.04272e-05
5.12839e-05
-1.66399e-05
-6.64196e-05
-0.000106226
-3.41021e-05
-0.000114615
-1.21313e-05
2.69829e-05
0.000152797
4.25638e-05
-6.6249e-05
1.30316e-05
0.000125127
-3.36294e-05
0.000125026
-3.74276e-05
-0.000105816
-9.70288e-05
0.000180478
2.01132e-05
3.31968e-05
4.16907e-05
0.000125363
-0.000130524
0.000146989
3.85048e-05
-9.22035e-05
-5.52821e-06
-2.88947e-05
-7.75097e-05
-0.00016559
-6.21091e-05
8.73232e-05
0.00013541
-5.54553e-05
8.27905e-05
8.54188e-05
0.000115635
-8.62868e-05
4.55808e-05
0.000119125
0.000184091
2.40596e-06
0.000137161
5.34619e-05
5.22607e-05
5.68451e-05
0.000167474
-5.51225e-05
-1.33794e-05
-4.05203e-05
-0.000125639
6.856e-05
-1.32679e-05
3.22429e-05
-2.87499e-05
-4.65674e-05
-8.74826e-05
-7.05929e-05
7.68013e-05
-9.85498e-05
4.49253e-05
-7.86623e-05
9.82094e-05
-0.000145106
-0.000182992
0.000104832
-1.3157e-05
-7.55036e-05
0.000210965
-6.38553e-05
8.74355e-05
0.000118603
-0.000142688
0.000153399
0.000188842
-0.000133897
-3.04496e-05
-8.05345e-05
-1.98924e-05
-2.80351e-05
5.00234e-05
-0.000123372
-0.000185926
2.17024e-05
2.22621e-05
-4.22011e-05
8.28359e-05
-0.000114716
-1.43955e-05
-3.40618e-05
-0.00010146
3.65766e-05
-5.1456e-05
0.000108135
-1.38633e-05
-8.48667e-05
1.70891e-05
0.000166328
4.82558e-05
-0.000137476
-0.000130724
-9.48575e-06
4.53354e-05
-0.000128979
5.08628e-05
1.61451e-05
-0.000157478
0.000116753
-5.86527e-05
-9.88611e-06
2.70256e-05
5.98144e-05
5.88681e-05
7.47677e-05
-2.0385e-05
6.78021e-05
-9.19692e-05
-5.6905e-06
-0.000144547
0.00017434
-1.03795e-05
-3.0396e-06
3.54412e-05
7.37598e-05
5.43423e-05
-7.24924e-05
-4.3993e-05
-3.61343e-05
2.63089e-05
0.000149056
6.77109e-05
-0.000108176
2.75555e-07
-0.000102251
0.000191155
-4.92786e-07
2.48823e-05
1.41297e-05
-5.52989e-05
-0.000112945
1.64516e-05
5.99889e-05
-0.000104574
-2.01637e-05
-2.06162e-05
-2.06786e-05
2.71753e-05
3.29526e-05
9.95219e-05
-4.56779e-05
-3.40294e-06
3.48249e-05
5.44944e-05
4.12608e-05
0.000162434
-7.5497e-05
-7.04981e-05
-8.71136e-07
0.000148986
8.32425e-05
6.13602e-05
7.60484e-05
-1.61111e-05
-8.15629e-06
0.000102877
4.52766e-05
3.04857e-06
1.02987e-05
9.89577e-05
-6.89173e-05
3.38092e-05
7.08597e-05
-5.00826e-05
-0.000160351
2.85014e-05
-3.94698e-05
0.000187724
0.000159625
2.64992e-05
9.43411e-05
4.62707e-05
5.01308e-06
-5.53322e-06
0.00016653
-0.000108887
6.76442e-05
7.97851e-05
2.64235e-05
-3.33128e-05
-3.69872e-05
0.000154182
-0.000138618
-8.34805e-05
3.13437e-05
1.95636e-06
7.74227e-05
-8.67883e-05
-0.000106185
0.000124944
-3.27197e-06
3.75246e-05
9.61656e-05
-6.26927e-05
0.00019247
1.74856e-07
-0.000103404
-1.46432e-05
-7.02792e-05
0.000126966
-4.42553e-05
-3.12368e-05
-6.08341e-05
0.000185488
6.59435e-06
-2.88455e-05
2.55764e-06
-4.19512e-05
2.88814e-05
-7.87324e-05
-0.000245335
-4.55731e-06
1.41922e-06
-2.96714e-05
-0.000100693
6.97649e-05
9.95675e-05
2.10069e-05
9.20026e-05
0.000134082
6.70739e-06
-3.21708e-05
-1.0582e-05
0.000141856
-7.66036e-05
-3.0268e-05
-9.20394e-05
-5.64925e-05
-6.99644e-05
-1.04203e-06
-3.12676e-05
-1.03475e-05
-1.91766e-05
6.47327e-06
-1.19127e-05
1.18996e-05
-0.00012422
-0.000133447
2.95358e-05
2.01787e-05
7.01145e-05
-6.80159e-05
0.000112858
-5.64296e-05
-0.000102792
3.18148e-05
9.65791e-05
0.000142975
-0.00021521
-2.51563e-05
0.000155176
-7.08783e-05
-1.83482e-06
-9.00577e-05
-6.12387e-05
3.06272e-05
-2.73804e-05
0.000121417
-7.09214e-06
-0.00013656
5.42091e-05
-8.1833e-06
-8.82483e-05
-4.20725e-06
6.04572e-05
1.07253e-06
-0.000111192
-8.29694e-05
-0.000135973
-2.61219e-05
7.20014e-05
-0.000131597
2.9603e-05
2.28286e-05
-6.37443e-05
0.00025458
-1.29702e-05
-0.000103429
-5.66967e-05
-0.000126446
-7.45093e-06
9.49728e-05
-0.000134313
2.41231e-05
-7.84068e-05
9.75835e-05
3.62003e-05
9.45163e-05
2.15508e-05
-2.06127e-05
-3.88105e-05
-0.000148647
0.000226775
9.63686e-05
-7.63234e-05
2.87783e-05
8.77604e-05
-8.39327e-05
-2.85241e-05
0.00010019
-0.000145643
7.67789e-05
4.41063e-05
6.3327e-05
3.54635e-05
-4.7019e-05
6.01055e-05
0.000238689
-1.13721e-05
1.32807e-05
4.61284e-05
9.3565e-05
0.000111443
6.89402e-05
4.29254e-05
5.71758e-05
-0.000123357
-2.57506e-05
2.0978e-05
-7.54534e-05
-5.30501e-05
3.71691e-06
-4.13259e-05
0.000107548
-7.4116e-05
-8.38637e-05
3.1566e-05
-0.00015553
-4.05894e-06
8.19244e-05
7.88565e-05
8.9216e-06
-0.000158252
0.000104387
6.37081e-05
-9.68606e-05
8.46991e-06
-2.26422e-05
2.02246e-05
-5.80794e-05
-4.53761e-05
-0.000111838
-1.58467e-05
4.66695e-05
8.89623e-06
1.84816e-05
0.000207151
1.02583e-05
3.13809e-05
0.000133192
4.81964e-05
4.8029e-05
4.55593e-05
2.47982e-05
0.000182448
-2.09906e-05
-5.10679e-05
-0.000165661
-1.12369e-05
1.81827e-05
-8.31876e-05
-4.87246e-05
-7.17363e-06
6.01658e-06
-7.74848e-05
6.14962e-05
8.30106e-05
5.09633e-05
-9.22242e-06
-1.73694e-05
4.86092e-06
0.000144273
-9.19844e-05
-0.000114029
-6.5278e-05
-1.09931e-05
8.56705e-05
-5.85336e-07
-1.54502e-05
0.000174422
0.000100694
-6.32091e-05
-0.000139901
1.76425e-05
-7.06054e-05
3.54813e-05
-0.000141504
8.52004e-05
7.95141e-05
-0.000127984
1.78961e-05
4.6322e-05
0.000139067
-4.06979e-05
-0.000219237
1.18928e-05
6.91263e-05
0.000103412
3.01385e-05
1.81205e-05
-8.48218e-05
-2.77939e-05
-3.61358e-05
-4.22499e-05
2.4697e-05
-0.000103875
-0.000121247
-1.8388e-05
-5.6803e-05
-0.000118191
-0.000102747
9.25118e-05
2.27749e-05
1.13467e-05
-0.000100635
-2.48381e-05
-9.26368e-05
3.89392e-05
5.6729e-05
-3.55972e-05
7.58733e-05
0.000112991
2.82419e-05
-6.0635e-05
1.33619e-05
-4.06096e-05
-1.7771e-05
8.73168e-05
-0.000233145
-0.000133023
0.000155851
-4.31323e-05
-1.50558e-05
-9.80054e-06
-1.25056e-05
3.95526e-05
-6.4272e-05
3.49223e-06
-0.000116737
-9.34419e-06
2.47861e-05
7.48532e-05
-0.000201998
-7.66097e-05
5.21209e-05
6.21412e-05
-2.86258e-05
-7.18138e-05
-8.0175e-05
-4.28612e-05
9.60904e-06
-5.67321e-05
-7.19776e-05
-4.84585e-05
1.45549e-05
0.000141873
0.000127031
1.97301e-06
9.00915e-05
5.61429e-05
-0.000165351
3.27243e-05
-6.42674e-05
9.19827e-05
-1.09896e-06
0.000159573
-1.1189e-05
-3.98199e-05
0.000106628
2.95395e-05
0.000145453
-0.000168277
-0.000103097
-5.23587e-05
4.49689e-06
2.28116e-06
6.18852e-05
-3.49614e-05
-0.000110267
8.19857e-05
-8.72053e-05
0.000166318
-0.000134454
4.82147e-05
-8.84733e-06
-3.29898e-06
7.4273e-05
-5.8574e-05
3.09364e-05
5.62286e-07
-9.50588e-05
6.60251e-05
-2.82362e-05
-8.41324e-05
-6.04368e-05
5.38495e-05
0.00025675
-0.000159861
2.50966e-05
3.67754e-05
-2.15392e-05
7.59178e-05
-7.9782e-05
0.000149188
-0.000147423
7.61393e-05
-3.72763e-05
2.41606e-05
-6.29663e-05
-3.29044e-05
1.48162e-05
-4.53116e-05
-8.09517e-05
-7.09491e-05
0.000223433
-8.89183e-05
-7.10958e-05
5.0938e-05
-0.000254145
2.66439e-05
0.000193972
1.38534e-08
6.41404e-05
-9.98835e-05
3.3281e-05
4.92511e-05
4.34159e-05
-0.000144352
7.04245e-05
-1.69757e-06
-0.000104599
-6.99654e-05
-2.57324e-06
3.4665e-06
0.000126863
-8.41729e-05
0.000112349
-7.54301e-06
7.81054e-06
-0.000189092
2.34591e-05
-8.62707e-06
-0.000121178
-2.0501e-05
-6.07851e-06
5.29648e-05
-0.000192091
-9.772e-05
-8.92906e-07
-9.43779e-06
-0.000140862
1.41964e-05
0.000150768
-2.41933e-05
-5.047e-05
-0.000102181
-7.32186e-05
4.00082e-05
-8.40155e-05
-2.62039e-06
7.2165e-05
-5.01575e-06
-0.000208037
-5.41105e-05
5.78301e-05
3.01213e-06
-0.000111918
6.54033e-06
-5.46844e-05
-5.0874e-05
-0.000133589
3.31152e-05
-4.74148e-06
-5.78376e-05
1.08754e-05
-4.19095e-05
-7.33047e-05
-5.93821e-05
-6.37663e-05
-7.91914e-05
0.000179464
1.76677e-05
2.4175e-05
4.90127e-05
9.09171e-05
1.51546e-05
2.98345e-05
0.000123131
-3.18812e-05
-5.28047e-05
4.12737e-05
-3.41268e-05
3.48024e-05
5.96382e-05
4.7948e-05
4.51223e-05
-8.7588e-05
-0.000116376
0.000112259
0.000105033
5.79006e-05
-5.89764e-05
-0.000101084
-4.49348e-05
1.35775e-05
-8.03005e-05
-7.24151e-05
-5.80534e-05
-8.03976e-06
8.58199e-05
4.42254e-05
1.96764e-05
6.9306e-05
-1.14448e-05
4.66336e-05
0.000114619
6.39139e-05
2.45429e-05
1.20531e-05
-3.64082e-05
0.000183935
-4.00511e-05
-9.58394e-05
-7.97369e-05
-6.42382e-05
0.000156116
-6.3636e-05
-2.02828e-05
4.17279e-06
-4.45128e-05
7.46372e-05
4.88352e-05
-3.63686e-05
-0.000136864
2.26917e-05
8.50555e-05
-0.000120947
5.87199e-05
8.04809e-05
0.000141268
-9.61537e-05
-4.66132e-05
9.0152e-06
9.69332e-06
-7.78129e-05
-0.000100692
-1.29177e-05
-5.87932e-05
0.000103821
-6.09955e-05
8.94499e-05
9.45111e-05
-0.000128506
-4.94935e-05
-4.36887e-05
-7.08306e-05
-0.000152902
8.99581e-05
3.93855e-05
-3.43997e-05
8.36034e-05
-8.62691e-05
1.90381e-05
0.000105029
6.92385e-05
-0.00015256
-1.11223e-05
1.29405e-05
-3.59834e-05
-0.000109606
-9.22417e-06
4.99602e-05
-0.000108295
-2.22262e-05
0.000162948
-3.69208e-05
-8.13967e-05
7.08316e-05
7.32478e-05
-0.000151625
1.86787e-05
-8.27662e-05
0.000149285
0.00020864
-8.35506e-05
0.00020018
-0.000120059
-1.88104e-05
6.65952e-05
2.44027e-05
3.58018e-05
-2.18053e-05
2.20289e-05
9.15944e-06
-1.01894e-05
7.73021e-05
0.000114985
0.000149647
-0.00023387
-7.64142e-05
-7.88829e-05
-9.34934e-05
-2.89034e-05
-6.38497e-05
-1.02568e-05
6.80245e-05
8.09908e-05
-9.7729e-05
-4.77612e-05
2.20702e-05
-9.07248e-06
-7.3444e-05
-2.47922e-05
-5.54187e-05
-0.000158401
-0.000131673
-0.000131401
0.000161567
-3.50317e-06
0.000106311
6.27389e-05
8.72302e-05
2.11268e-05
-3.42304e-05
6.97582e-05
-0.000100716
-5.44623e-05
3.59344e-05
0.000133589
-0.000108584
-3.32652e-05
3.54219e-05
1.38133e-05
0.000106503
3.69297e-05
-6.15639e-05
1.42946e-06
3.041e-06
-1.1879e-05
4.29848e-05
-0.00010853
5.92815e-05
-7.51636e-06
-9.04322e-05
0.000141919
-2.30516e-05
6.78888e-06
3.79237e-05
-0.000152063
4.06211e-05
5.02768e-05
0.000112594
0.000128137
-0.000125756
1.05314e-05
-5.09267e-05
2.9841e-05
2.57913e-05
-8.11837e-05
0.000115301
6.59632e-05
6.76946e-05
-0.000130828
-0.00011262
0.000101887
1.27079e-06
4.5331e-05
-8.13741e-05
-5.44183e-05
1.97912e-05
0.000133827
-0.000102773
2.49994e-05
2.97733e-05
-0.000129572
0.000129192
0.000223765
-9.91622e-05
3.28551e-05
-1.1603e-05
-8.31764e-05
-9.07925e-05
0.000253356
5.35445e-05
8.99074e-05
-1.28828e-05
1.56278e-05
-1.35127e-05
-6.94774e-05
0.000116717
6.96396e-07
-0.000128637
9.7719e-05
-3.59085e-05
7.80541e-06
-3.26312e-05
2.09059e-06
-0.000176928
3.63812e-05
8.55348e-05
3.70876e-06
-5.7265e-05
-6.51203e-05
3.48394e-05
7.93122e-05
-2.30516e-05
-9.24056e-05
0.000148317
2.08892e-05
-0.000112436
-1.74949e-06
2.791e-05
0.000137688
2.49795e-05
9.28805e-05
-7.91812e-05
-3.03597e-05
-2.9176e-05
-9.09555e-05
2.60479e-05
5.78004e-05
-3.75833e-05
-1.97818e-05
0.000156924
1.18946e-05
-4.09648e-05
-4.77943e-06
6.18374e-05
3.51775e-05
-7.29746e-05
2.94537e-05
-4.75408e-05
-0.000199166
-5.49508e-05
0.000113419
1.6585e-05
0.000119958
-4.95457e-05
-5.48704e-05
-4.40066e-05
-0.00013232
-1.10687e-05
-3.26021e-05
2.95191e-05
-6.70108e-05
-5.68004e-05
4.42582e-05
0.000101566
-3.75577e-05
6.8852e-05
2.7711e-05
-1.84726e-05
6.68014e-06
2.3826e-05
-5.53917e-05
-4.54461e-05
-0.000216462
-2.11402e-05
-1.8077e-06
-2.24013e-05
-1.20918e-05
0.000100169
-2.95332e-05
-7.85098e-05
-5.64094e-05
3.54528e-05
-0.000122102
2.53569e-05
-5.15478e-05
-4.73839e-05
-0.000177943
9.9132e-05
-2.02772e-05
-9.05287e-05
-0.000160803
3.15856e-05
2.08627e-05
0.000123532
2.61993e-05
0.000129311
0.000128507
-0.000103171
0.000114865
-0.000114433
-0.000105036
8.21952e-05
2.43448e-06
-7.25681e-05
7.05031e-05
-7.86394e-05
6.73995e-05
-0.00012797
-0.000100283
-0.000118212
-7.90139e-05
0.000137715
0.000141568
9.92988e-06
7.1906e-05
0.000100329
2.52505e-05
1.47452e-06
8.82394e-05
5.7572e-05
-6.24527e-05
8.5198e-05
-0.000157948
1.81692e-05
-3.88664e-06
4.89353e-05
4.22918e-05
-0.000100306
-1.68709e-06
-1.68707e-05
0.000236002
-3.15246e-05
0.000154999
8.43909e-05
-0.00017859
-0.000125187
8.14856e-05
0.000228193
9.75163e-05
5.02646e-06
-2.93702e-05
-2.13404e-05
-8.04604e-06
0.000111529
1.97906e-07
1.47172e-05
2.26222e-05
-5.05626e-05
-1.8626e-05
-9.56485e-05
1.27176e-05
-6.3699e-06
-4.83729e-05
-0.000162495
-0.00015067
-0.000123185
-0.000130302
-0.000143541
2.76942e-05
-1.19655e-05
2.78479e-05
9.66766e-05
-0.000155889
-2.90854e-05
4.30581e-05
5.52193e-05
5.57831e-05
-7.19576e-05
8.21793e-05
3.17998e-05
-1.6143e-05
0.000118335
-3.50529e-05
6.98173e-05
5.22413e-05
-7.46017e-05
0.000128429
6.87918e-05
5.3709e-05
0.000164081
-6.81006e-06
5.29115e-05
6.07583e-05
0.00010507
-3.679e-05
6.41251e-05
3.23202e-05
1.73883e-05
-6.47979e-05
3.52544e-05
-5.44649e-06
-5.82703e-05
1.32606e-05
7.89599e-06
3.92087e-06
-6.19179e-05
-0.000115362
0.000189382
-7.03014e-05
3.24491e-05
-1.29216e-05
1.29633e-05
3.50394e-05
-3.84768e-05
-0.000227834
1.54442e-05
6.68486e-05
0.000208984
-0.000137775
-0.000119737
3.3793e-06
-6.67847e-05
5.28104e-05
0.000212002
-5.04099e-05
4.52355e-05
6.23977e-05
6.92625e-06
3.3339e-05
-6.37036e-05
-0.000141853
-8.25967e-05
-2.83278e-05
6.21285e-05
7.06126e-05
-5.41137e-05
7.35443e-05
-7.91081e-05
-5.0536e-05
-4.26946e-05
-7.86114e-05
0.0001346
8.8641e-06
2.62004e-06
-3.53694e-05
-5.94269e-05
3.82784e-05
0.000139264
3.07458e-05
7.92183e-06
-4.5456e-05
9.66459e-05
-7.32989e-05
5.74486e-06
0.000131036
-4.60166e-05
6.88415e-05
1.54724e-05
-8.83699e-05
-5.20661e-05
1.93811e-05
-2.46966e-05
-0.000105774
5.53711e-05
8.18239e-05
-1.16582e-05
7.75497e-05
-7.53811e-05
1.98965e-05
-6.55053e-05
8.65613e-05
-3.59194e-05
3.04577e-05
-5.88952e-05
9.53081e-06
8.2546e-05
7.46216e-05
0.00012271
-5.17644e-05
-0.000140594
0.00019018
9.21078e-06
3.64252e-05
9.16626e-05
-3.47005e-05
4.36618e-05
3.07763e-05
-0.000150938
-8.95238e-05
0.000129958
-3.13123e-05
-7.87965e-05
6.6621e-06
-1.8935e-06
5.44357e-05
-0.000157931
6.44319e-05
4.38886e-06
3.60436e-05
-2.89258e-05
8.61721e-05
-1.95212e-05
0.000125603
-4.93156e-05
-0.000227412
-8.44896e-05
5.98046e-05
9.8701e-05
1.23549e-05
-5.95481e-05
-9.385e-05
-3.79933e-06
9.86247e-06
2.5556e-05
-2.09049e-05
5.2906e-05
0.000165624
1.71984e-05
-1.62059e-05
8.63124e-05
9.68998e-05
0.00013841
-7.13127e-05
-9.83444e-05
-0.000187773
5.00736e-05
-0.000108281
-4.20378e-05
5.10598e-05
-1.11752e-05
-0.000140329
-4.61561e-05
9.76484e-05
1.93343e-06
0.000108967
-0.000172523
9.25397e-06
-0.000121084
-5.38625e-05
0.000162286
6.13235e-05
-2.9966e-05
7.61807e-05
0.000115906
-6.37935e-05
3.29332e-05
2.14525e-05
-4.11272e-06
5.75266e-05
2.30668e-05
2.59976e-05
-0.000109766
-5.5488e-05
-8.38377e-06
2.8762e-05
9.90406e-05
-4.36301e-05
1.81701e-05
-0.000169496
6.91148e-05
0.00012983
-9.32178e-05
-1.71871e-05
-6.78557e-05
-1.37768e-05
-2.54698e-05
4.15124e-05
2.24671e-05
-9.06695e-05
2.38931e-06
2.23625e-05
-1.01796e-05
-2.06261e-05
8.91828e-05
-1.04995e-06
-7.01816e-05
6.77118e-05
-0.000114378
0.00017775
6.07078e-05
-6.39327e-05
-4.53341e-05
-9.15689e-05
5.09664e-05
0.000144512
3.63716e-06
9.3159e-06
-4.96001e-05
-2.26524e-05
-0.000135984
6.17027e-05
-8.2309e-05
-2.61457e-05
6.40769e-05
-3.31926e-05
3.07767e-05
8.76582e-05
-0.000151892
-5.1677e-05
1.66295e-05
-6.09263e-05
-0.000119047
6.81179e-05
1.12378e-05
-9.24454e-06
-5.53956e-05
0.000118444
-2.72854e-05
-0.000138147
4.61026e-05
4.37268e-06
3.15574e-05
-5.2243e-05
-7.02601e-05
5.66059e-05
0.000132814
0.000165443
0.00012442
5.91397e-05
-9.19699e-05
1.81688e-05
6.40948e-06
8.71529e-05
4.34434e-05
8.68462e-05
-6.83204e-05
2.92052e-05
-3.11066e-05
2.90945e-05
7.03548e-05
-7.91651e-05
0.000121495
1.46353e-05
-3.86857e-05
-5.53839e-05
-9.60242e-05
0.000150604
4.09505e-05
-7.54481e-05
-6.59024e-05
3.99821e-05
-3.86502e-05
0.000112857
-0.000197858
4.93149e-05
-6.38686e-05
-1.77041e-05
-2.65975e-05
-0.000101565
-1.84756e-05
-3.32675e-05
-1.24199e-05
-1.43059e-05
2.11434e-06
-3.65266e-05
2.22865e-05
-5.77042e-05
0.000197708
-0.000151495
-5.89498e-05
0.000137779
2.68313e-05
-9.80287e-05
-0.000124932
3.11434e-05
-1.91442e-05
1.89827e-06
9.94829e-05
0.00023289
7.02444e-05
-0.000154902
-8.72561e-05
0.000162866
4.77838e-06
-3.19141e-06
2.80283e-05
5.15271e-05
2.49973e-05
0.000113019
-0.00010313
6.42845e-06
-6.807e-05
5.21252e-05
9.98094e-05
3.75332e-05
-1.25122e-05
2.78683e-05
-0.000175121
-3.98164e-05
0.000127756
5.71355e-06
-4.73857e-06
2.42176e-05
-0.000104494
-2.66091e-06
-0.000126256
-6.13288e-05
4.57142e-05
-2.78153e-05
7.8863e-05
0.000187593
0.000142462
-7.18031e-05
3.68712e-05
-7.99715e-05
-9.76785e-05
8.35125e-05
-7.66612e-05
1.73708e-05
3.88215e-05
3.7634e-05
-6.60976e-05
-4.9041e-05
-7.54872e-06
-0.000157611
7.44853e-05
0.000110231
0.000165342
-0.000116037
5.68125e-05
2.02926e-05
-4.26092e-05
4.47268e-05
-3.47773e-05
-3.89838e-05
-7.47686e-05
4.80473e-05
9.04483e-05
-5.5811e-05
-1.13858e-05
3.43577e-06
0.000201405
-5.2454e-05
6.94708e-05
-1.13552e-06
-8.97855e-05
6.21309e-06
-1.40303e-05
-5.95946e-05
3.46325e-05
0.000132579
-3.5716e-05
3.04385e-05
0.000111536
1.88512e-05
-1.74167e-05
-4.32124e-05
-1.18209e-05
-1.31875e-06
2.33712e-05
-2.0171e-05
-7.93706e-05
0.000145506
1.79207e-05
-2.63036e-05
-3.20195e-05
7.61123e-05
-8.72731e-06
-0.000197836
-0.000123454
2.0072e-05
4.62931e-05
0.000133335
-1.32767e-05
2.91379e-05
4.53094e-05
-3.26461e-05
-4.05909e-05
0.00012126
6.09392e-05
1.83125e-05
-6.41081e-05
8.71444e-05
-3.5212e-05
-2.23267e-05
2.69901e-05
-0.000210486
0.000114812
-9.10566e-05
0.00014374
1.79429e-05
1.02349e-05
-2.47062e-05
8.52565e-05
0.000171645
-1.39993e-05
-7.11633e-05
-7.2832e-05
5.84444e-05
5.29923e-05
6.56091e-05
-9.6905e-05
-1.3574e-05
0.000129801
0.000239294
-4.43284e-05
3.97896e-05
-1.95489e-05
9.60261e-05
-3.60286e-05
-0.000116181
-2.88163e-05
-4.16202e-05
0.000108468
7.31344e-06
2.4383e-05
-3.95877e-05
-9.52773e-05
0.000234467
8.88015e-05
5.22881e-05
7.42767e-05
6.16396e-05
-4.00973e-05
-8.5542e-05
-0.000195942
-9.62394e-05
-2.46785e-05
4.10401e-05
7.28224e-05
-1.15087e-05
0.000226808
0.000109815
-0.000132022
-9.46363e-06
7.5636e-05
-8.94861e-06
3.65067e-05
0.000156296
0.000201728
3.54768e-05
0.000154689
-1.79438e-05
9.59341e-05
9.93997e-05
-0.000144887
-0.000179458
-5.57551e-05
-0.000112793
4.62697e-05
9.80287e-06
-3.30925e-05
-6.04563e-05
4.98805e-06
6.31224e-05
-4.55347e-05
8.09e-05
-4.53433e-05
-5.27857e-05
-3.14554e-06
-3.57057e-05
-9.53046e-06
-6.95036e-05
0.000112653
3.84289e-05
3.97169e-05
0.00011879
0.000150987
-1.51485e-05
-7.94134e-05
9.34908e-06
-0.0001943
9.04943e-06
0.000121528
0.000118378
1.48945e-05
-4.72448e-05
-0.000137434
9.47139e-05
7.65391e-05
2.43284e-05
-5.19564e-05
-9.07072e-05
-7.84033e-05
-0.00013318
0.000166112
0.000142645
-1.28018e-05
-6.76513e-06
6.35248e-05
-0.000160429
6.1154e-05
6.39413e-05
-4.49229e-05
-0.000135077
6.33206e-05
-1.69151e-06
7.03941e-05
-3.51295e-06
2.15793e-05
-9.5493e-05
4.56348e-08
3.93006e-06
-0.000138938
-4.66091e-05
-2.1399e-05
3.82514e-05
4.52867e-05
-5.11388e-05
-4.63856e-05
-3.81474e-05
-3.43011e-05
0.000192354
7.41845e-05
0.000221835
0.000152335
-0.000181402
7.7131e-05
-2.89915e-05
-3.5279e-05
-1.87602e-05
3.99146e-05
7.1595e-05
0.00011
-1.74606e-05
4.86124e-05
1.13505e-07
-2.96718e-05
-2.04891e-08
3.66986e-05
7.52395e-05
-6.67826e-05
-0.00012009
0.000114192
-8.33059e-05
0.000195564
-3.68106e-05
-4.92429e-05
-4.45823e-05
-6.72843e-05
-4.47988e-05
5.05154e-05
9.99527e-05
-0.000119872
-7.21818e-05
3.08804e-05
1.09178e-05
-6.43213e-05
-1.27679e-05
0.000136611
2.14315e-05
-8.01779e-05
0.000107602
-1.95252e-06
1.55654e-05
-0.000126492
-4.68818e-05
8.1287e-05
-2.08906e-05
-8.32628e-05
0.000186635
0.000197409
5.88675e-05
-0.000151033
-0.000109855
-0.000144197
-1.88316e-05
-2.33381e-05
9.07429e-05
0.000110765
8.39005e-07
0.000269336
6.35895e-06
-0.000178776
4.8205e-05
7.13393e-07
4.82111e-06
-7.97904e-05
-8.61991e-05
-1.99096e-05
-4.88928e-05
9.48086e-05
-7.22473e-07
0.000105487
-5.5577e-05
-3.23022e-05
-5.79853e-06
7.00362e-05
-2.66409e-05
5.87758e-06
2.30991e-05
-2.69376e-05
-3.54308e-05
0.000121423
-0.00019233
6.66261e-05
5.33487e-05
-3.13581e-05
-0.0001127
3.98421e-05
8.37327e-05
-0.000135247
-0.000129602
-3.15759e-05
-7.25352e-05
9.45914e-05
8.67737e-05
-0.000117806
-4.82254e-05
2.83692e-06
-0.00020758
2.65407e-05
0.000114954
2.77162e-06
-5.15219e-05
9.70061e-05
0.000128563
-5.79396e-05
4.13866e-05
8.48332e-05
-4.58404e-05
-9.13243e-05
0.000140747
2.6065e-05
-9.71523e-05
7.6549e-05
1.62688e-05
-0.000120146
-0.000104043
-4.2578e-05
0.000110973
2.52872e-05
-0.000134327
-6.40898e-05
0.000116879
5.98418e-05
-7.31118e-05
3.84441e-05
-2.63024e-05
-4.34952e-05
-9.02773e-05
2.12616e-05
-6.14582e-05
0.000181006
6.66189e-05
-0.00014922
-9.56678e-06
0.000104835
8.10259e-05
3.17448e-05
-2.58491e-05
-5.59185e-05
1.56064e-05
-4.15965e-05
4.94552e-05
-7.84522e-05
-0.0001203
1.88587e-05
3.4024e-05
-0.000102925
-9.41436e-05
-6.7265e-05
-2.0402e-05
-4.34602e-05
1.14391e-05
7.69979e-05
-0.00020248
-7.01332e-06
5.69585e-05
0.000138873
2.73681e-06
-1.34445e-05
0.000141716
-9.78195e-05
-1.75685e-05
-0.000114249
-4.51761e-06
0.000133411
-1.6374e-05
2.38846e-05
0.00011409
-1.51456e-05
5.7806e-06
-5.89266e-05
0.00010652
-0.000110708
6.32808e-05
0.000123233
-7.25343e-05
-4.84358e-06
4.08345e-05
-9.35455e-06
-0.000105669
-4.55786e-05
0.000124541
-6.00487e-05
-4.19323e-05
-0.000133913
-2.70044e-05
-2.5199e-05
5.45708e-06
-5.03566e-06
-7.6921e-05
6.50494e-06
0.000116325
0.000127374
0.000166731
-1.05561e-05
-0.000206479
0.000182522
7.4839e-05
-2.78912e-05
7.52551e-05
-4.91734e-05
-1.85493e-05
-1.14245e-05
3.4079e-05
-3.84294e-05
-7.33606e-05
8.69255e-05
6.50192e-05
-9.85954e-05
-5.78526e-06
-1.07901e-05
-5.80214e-05
-9.2061e-05
2.76712e-05
-8.15355e-05
-7.98199e-05
2.1359e-05
0.000112224
9.84108e-05
7.53239e-05
-0.000211936
0.00016368
-7.19717e-05
4.48013e-06
-3.96578e-05
5.87142e-05
3.47933e-05
3.47588e-05
2.93541e-05
4.70434e-06
5.54371e-05
-1.48604e-06
-0.000124396
-3.48315e-06
-5.07146e-05
-2.09995e-05
0.000129397
-2.9257e-05
2.0918e-05
-7.05537e-05
-0.000171928
-3.46857e-05
0.000154134
-4.65248e-05
0.000150402
-1.4069e-05
2.78042e-05
-4.513e-05
9.39495e-06
0.000141182
3.29126e-05
-4.06125e-05
6.58382e-05
3.87584e-05
-2.9337e-05
-3.00342e-05
-5.72286e-06
6.48906e-05
-3.88515e-05
0.000130689
-4.96428e-05
7.59361e-05
-3.69512e-05
9.97796e-06
-6.46465e-05
3.62762e-05
-2.4983e-05
-3.81783e-05
1.75787e-05
-6.32815e-05
-6.81195e-05
7.20702e-05
-4.26061e-05
-4.93639e-05
-9.92042e-05
-0.000139118
9.75184e-05
-3.39864e-05
-0.000114886
-0.000112189
4.04844e-05
-2.15922e-05
-4.61728e-05
0.000109451
7.06455e-05
-4.02324e-05
6.59099e-05
-3.00456e-05
4.02911e-05
0.000171771
-0.000140593
-0.000213177
-5.79008e-05
-5.55278e-06
6.445e-05
-0.000166968
8.324e-05
7.40774e-05
-5.58142e-06
1.5696e-05
0.000152074
4.79016e-05
2.48023e-05
-1.09855e-05
-6.54357e-05
-9.80821e-05
-5.30056e-05
-2.28528e-05
0.000155692
6.38093e-05
4.59801e-05
-3.64104e-05
-0.000112675
-4.9845e-05
1.40639e-05
6.13078e-06
-2.21186e-05
3.6245e-05
6.27334e-05
2.96993e-05
7.35474e-05
-3.0898e-05
-8.75966e-05
1.02562e-06
0.000234073
-6.07651e-05
-8.99276e-05
4.31341e-05
9.36027e-05
4.04275e-05
-5.69888e-06
-7.08206e-05
-1.62121e-05
-8.73022e-05
-9.1234e-05
7.18294e-06