# vtk DataFile Version 1.0
Electron Density - Current Sheet 
ASCII
DATASET STRUCTURED_POINTS
DIMENSIONS 256 128 1
ORIGIN 0 0 0
SPACING 0.15625 0.15625 1
POINT_DATA 32768
SCALARS rhoe float
LOOKUP_TABLE default
-1.20735e-19
-1.24814e-19
-1.57214e-19
-1.69791e-19
-1.45851e-19
-1.28004e-19
-2.35895e-19
-2.16991e-19
-2.08018e-19
-2.40431e-19
-2.02916e-19
-1.60356e-19
-1.56445e-19
-1.6118e-19
-1.7618e-19
-1.72705e-19
-1.96736e-19
-2.17511e-19
-9.21193e-20
-1.53652e-19
-1.60923e-19
-1.73916e-19
-1.36595e-19
-2.19772e-19
-2.21454e-19
-1.5989e-19
-1.75542e-19
-1.61165e-19
-1.83805e-19
-1.43191e-19
-1.54994e-19
-1.11408e-19
-1.37906e-19
-1.69334e-19
-2.0304e-19
-1.58366e-19
-1.22365e-19
-1.88367e-19
-1.70623e-19
-1.41604e-19
-1.4284e-19
-8.23411e-20
-2.20798e-19
-1.26619e-19
-1.16154e-19
-1.74043e-19
-1.92648e-19
-2.19143e-19
-2.22732e-19
-2.18259e-19
-1.50208e-19
-1.64345e-19
-1.44896e-19
-1.10302e-19
-1.43774e-19
-2.14361e-19
-2.02956e-19
-1.56563e-19
-1.30068e-19
-1.9084e-19
-2.01398e-19
-2.17648e-19
-1.66744e-19
-2.15671e-19
-1.94937e-19
-1.26867e-19
-1.59065e-19
-2.39381e-19
-1.53926e-19
-1.03664e-19
-1.20553e-19
-1.80373e-19
-1.16298e-19
-2.28398e-19
-1.27894e-19
-1.91488e-19
-1.50349e-19
-1.98267e-19
-1.47456e-19
-1.16095e-19
-1.22594e-19
-1.9996e-19
-1.71335e-19
-1.44809e-19
-2.06535e-19
-1.51935e-19
-1.63951e-19
-1.10329e-19
-1.83192e-19
-1.27186e-19
-2.22553e-19
-1.48476e-19
-1.25816e-19
-1.81837e-19
-1.99841e-19
-1.39157e-19
-1.33787e-19
-1.80417e-19
-1.87918e-19
-1.15013e-19
-2.14368e-19
-2.07047e-19
-1.31942e-19
-1.75892e-19
-1.45916e-19
-2.02173e-19
-1.72328e-19
-8.64234e-20
-1.56383e-19
-1.61151e-19
-1.83905e-19
-1.72201e-19
-2.08258e-19
-1.66574e-19
-2.07619e-19
-2.09107e-19
-1.31675e-19
-1.71656e-19
-1.89464e-19
-1.99753e-19
-1.68165e-19
-1.07099e-19
-2.00278e-19
-1.81305e-19
-2.70344e-19
-2.19952e-19
-2.12263e-19
-1.93993e-19
-2.49545e-19
-1.69532e-19
-2.08741e-19
-1.86059e-19
-1.41683e-19
-2.35977e-19
-1.37183e-19
-1.50346e-19
-2.20073e-19
-1.70115e-19
-1.2153e-19
-1.58863e-19
-1.41117e-19
-1.87073e-19
-1.67752e-19
-1.98326e-19
-2.02764e-19
-1.39565e-19
-1.75048e-19
-1.5405e-19
-1.59725e-19
-1.18269e-19
-2.695e-19
-1.54534e-19
-1.76144e-19
-1.86935e-19
-2.17473e-19
-1.66705e-19
-2.28225e-19
-2.25006e-19
-1.69148e-19
-1.10262e-19
-1.4976e-19
-1.74347e-19
-1.97082e-19
-1.46866e-19
-1.67131e-19
-1.82265e-19
-1.60197e-19
-2.23392e-19
-1.31268e-19
-1.99456e-19
-2.0491e-19
-2.02862e-19
-2.67529e-19
-2.34911e-19
-2.43407e-19
-1.9414e-19
-2.08897e-19
-1.92628e-19
-2.68656e-19
-1.51337e-19
-1.84985e-19
-1.61584e-19
-1.11055e-19
-1.40154e-19
-1.23276e-19
-1.55821e-19
-1.71157e-19
-1.72381e-19
-2.63946e-19
-1.91358e-19
-8.79381e-20
-1.22309e-19
-1.57415e-19
-1.70839e-19
-1.42888e-19
-1.51482e-19
-2.15805e-19
-2.066e-19
-2.19458e-19
-1.13529e-19
-1.69306e-19
-8.22053e-20
-1.31604e-19
-1.08435e-19
-8.40752e-20
-1.92434e-19
-1.70822e-19
-1.94426e-19
-2.45265e-19
-1.70546e-19
-2.08198e-19
-2.0199e-19
-2.0385e-19
-2.6334e-19
-1.71724e-19
-2.61481e-19
-1.5727e-19
-1.68388e-19
-1.08122e-19
-1.5502e-19
-1.52513e-19
-1.69329e-19
-1.86067e-19
-1.96051e-19
-2.24415e-19
-1.66768e-19
-1.78544e-19
-1.35837e-19
-2.26032e-19
-1.78379e-19
-2.47324e-19
-2.00169e-19
-1.64626e-19
-1.83247e-19
-1.55686e-19
-9.03041e-20
-1.83677e-19
-8.39281e-20
-1.59989e-19
-1.07414e-19
-1.10559e-19
-1.99198e-19
-1.83213e-19
-2.58017e-19
-1.80495e-19
-2.16565e-19
-1.1302e-19
-1.41027e-19
-2.82876e-19
-1.50716e-19
-2.12875e-19
-3.11068e-19
-1.64131e-19
-1.28804e-19
-1.33818e-19
-1.79942e-19
-2.99699e-19
-2.10526e-19
-1.88828e-19
-1.61423e-19
-2.28382e-19
-2.6728e-19
-3.1811e-19
-2.4087e-19
-2.58793e-19
-1.78277e-19
-2.08501e-19
-2.79017e-19
-3.31177e-19
-2.12849e-19
-2.53237e-19
-2.53423e-19
-1.8042e-19
-2.98274e-19
-1.90849e-19
-1.81637e-19
-2.10092e-19
-2.53856e-19
-1.50764e-19
-2.1057e-19
-2.10689e-19
-2.05837e-19
-2.56577e-19
-2.56488e-19
-2.37869e-19
-1.91713e-19
-1.96315e-19
-2.54414e-19
-2.49134e-19
-2.72758e-19
-2.0755e-19
-1.93729e-19
-2.16081e-19
-2.4233e-19
-2.3179e-19
-1.62498e-19
-1.87341e-19
-1.87636e-19
-2.35633e-19
-2.02337e-19
-2.41551e-19
-1.53767e-19
-2.52297e-19
-2.22394e-19
-1.85685e-19
-2.10609e-19
-1.80949e-19
-2.24773e-19
-2.03324e-19
-1.40696e-19
-1.50393e-19
-1.61086e-19
-2.71951e-19
-1.91276e-19
-1.66971e-19
-2.68414e-19
-2.0174e-19
-2.44584e-19
-1.99168e-19
-2.35915e-19
-2.46695e-19
-2.12703e-19
-2.87131e-19
-2.77842e-19
-1.7282e-19
-2.54133e-19
-2.24491e-19
-2.16118e-19
-2.26923e-19
-2.47417e-19
-1.83285e-19
-1.47757e-19
-1.99147e-19
-2.18881e-19
-2.37564e-19
-2.00687e-19
-2.33016e-19
-1.76926e-19
-2.22009e-19
-2.14758e-19
-1.93605e-19
-2.20915e-19
-2.35428e-19
-2.41784e-19
-1.78105e-19
-1.88002e-19
-2.12959e-19
-2.52863e-19
-2.06323e-19
-1.03914e-19
-2.26447e-19
-2.21657e-19
-2.00098e-19
-2.47218e-19
-2.73234e-19
-2.87556e-19
-2.61279e-19
-2.11617e-19
-1.4661e-19
-1.43646e-19
-1.84623e-19
-2.41294e-19
-1.95268e-19
-2.53002e-19
-1.8191e-19
-2.23186e-19
-2.56053e-19
-3.16341e-19
-2.25057e-19
-2.18513e-19
-1.78655e-19
-2.51092e-19
-2.4712e-19
-1.77301e-19
-1.96033e-19
-1.86811e-19
-1.7207e-19
-1.94736e-19
-2.13845e-19
-2.05021e-19
-2.45087e-19
-2.29869e-19
-2.74541e-19
-2.36924e-19
-2.50216e-19
-2.29491e-19
-2.47843e-19
-2.02673e-19
-2.15643e-19
-2.10069e-19
-1.35786e-19
-1.48311e-19
-1.27328e-19
-2.1001e-19
-2.00068e-19
-1.93251e-19
-1.68652e-19
-1.83272e-19
-2.20114e-19
-2.75157e-19
-2.61766e-19
-2.5517e-19
-1.79677e-19
-1.3291e-19
-2.64911e-19
-1.45011e-19
-2.08022e-19
-2.05457e-19
-2.44055e-19
-2.18798e-19
-1.83925e-19
-1.9432e-19
-1.93671e-19
-1.63015e-19
-1.68726e-19
-1.52282e-19
-1.70064e-19
-2.14485e-19
-2.20143e-19
-1.64063e-19
-1.65482e-19
-1.82555e-19
-2.19472e-19
-2.65335e-19
-2.11236e-19
-1.86105e-19
-2.69589e-19
-2.8353e-19
-1.59897e-19
-2.03779e-19
-2.00504e-19
-2.36983e-19
-2.2703e-19
-2.00415e-19
-2.71644e-19
-1.79349e-19
-1.71037e-19
-2.00396e-19
-1.84867e-19
-1.88958e-19
-2.10531e-19
-1.70932e-19
-1.76798e-19
-2.5619e-19
-2.18752e-19
-2.17334e-19
-1.59959e-19
-2.16953e-19
-2.39628e-19
-2.34377e-19
-2.54669e-19
-1.7101e-19
-1.96415e-19
-2.49682e-19
-2.03476e-19
-2.53295e-19
-1.76506e-19
-1.93221e-19
-2.39022e-19
-1.12325e-19
-1.78338e-19
-1.77175e-19
-1.99453e-19
-2.44536e-19
-2.32144e-19
-2.32051e-19
-2.13731e-19
-2.74072e-19
-2.25008e-19
-1.86049e-19
-2.41291e-19
-2.40266e-19
-1.79099e-19
-1.81409e-19
-1.68751e-19
-2.7836e-19
-1.61812e-19
-2.17611e-19
-2.20504e-19
-2.18033e-19
-2.32996e-19
-2.32839e-19
-2.21159e-19
-1.71042e-19
-1.87812e-19
-2.22668e-19
-2.58107e-19
-2.84596e-19
-1.74265e-19
-2.07506e-19
-2.1239e-19
-1.86394e-19
-1.88436e-19
-2.20849e-19
-2.10527e-19
-2.03969e-19
-1.43185e-19
-2.03993e-19
-1.55921e-19
-2.14623e-19
-2.20382e-19
-2.18464e-19
-2.70923e-19
-1.71995e-19
-2.52374e-19
-1.93037e-19
-1.64823e-19
-2.89537e-19
-1.56466e-19
-1.97993e-19
-2.47493e-19
-1.54739e-19
-5.29173e-19
-2.89273e-19
-3.05209e-19
-4.73636e-19
-3.09886e-19
-5.01316e-19
-4.35017e-19
-4.33286e-19
-3.5937e-19
-3.37264e-19
-4.69838e-19
-4.21291e-19
-5.17563e-19
-3.45292e-19
-3.12571e-19
-4.95571e-19
-3.86151e-19
-3.68145e-19
-4.85955e-19
-3.81105e-19
-3.77611e-19
-4.30114e-19
-4.28616e-19
-3.52688e-19
-3.37343e-19
-3.92998e-19
-4.55742e-19
-3.98681e-19
-3.87267e-19
-3.85736e-19
-3.59733e-19
-3.84389e-19
-3.27625e-19
-4.02373e-19
-3.73777e-19
-3.16349e-19
-4.16892e-19
-3.07478e-19
-4.13274e-19
-2.85956e-19
-5.27893e-19
-4.02616e-19
-4.13647e-19
-2.46692e-19
-3.32013e-19
-3.65132e-19
-3.81349e-19
-4.00394e-19
-3.94241e-19
-3.40861e-19
-4.14298e-19
-3.79883e-19
-4.98269e-19
-3.56887e-19
-3.09488e-19
-4.03703e-19
-2.98873e-19
-3.96001e-19
-5.31932e-19
-4.10906e-19
-2.78375e-19
-3.45649e-19
-3.96521e-19
-3.84481e-19
-3.73777e-19
-2.89021e-19
-3.74227e-19
-3.9049e-19
-3.43581e-19
-3.05096e-19
-3.49864e-19
-3.63556e-19
-2.27798e-19
-2.77075e-19
-3.42431e-19
-3.35554e-19
-4.6945e-19
-2.66989e-19
-3.28417e-19
-3.10482e-19
-2.93999e-19
-4.65996e-19
-3.40037e-19
-4.43999e-19
-3.98013e-19
-3.74696e-19
-4.43507e-19
-4.56475e-19
-3.20326e-19
-3.91691e-19
-2.87363e-19
-3.01293e-19
-3.67795e-19
-4.12284e-19
-3.29649e-19
-3.1783e-19
-2.97256e-19
-3.43088e-19
-3.7432e-19
-3.48353e-19
-3.03644e-19
-3.06736e-19
-4.4885e-19
-2.70617e-19
-3.52112e-19
-3.80365e-19
-3.64165e-19
-3.64895e-19
-4.65881e-19
-4.19586e-19
-2.96679e-19
-4.9209e-19
-5.09809e-19
-3.83148e-19
-4.7345e-19
-4.50475e-19
-4.69472e-19
-2.30029e-19
-3.85676e-19
-3.89161e-19
-4.73243e-19
-4.05629e-19
-3.58669e-19
-5.35335e-19
-4.91665e-19
-3.20922e-19
-3.5217e-19
-4.70621e-19
-4.84938e-19
-3.95655e-19
-3.79662e-19
-4.4387e-19
-4.39255e-19
-4.1876e-19
-4.11045e-19
-4.24032e-19
-3.79747e-19
-3.68305e-19
-3.45852e-19
-3.47286e-19
-2.9636e-19
-3.44099e-19
-4.02766e-19
-3.696e-19
-3.90007e-19
-4.38088e-19
-4.53793e-19
-5.12668e-19
-3.23415e-19
-2.90562e-19
-2.71089e-19
-4.56738e-19
-3.50216e-19
-3.52581e-19
-4.43505e-19
-3.35025e-19
-3.67897e-19
-3.49751e-19
-2.81826e-19
-2.16848e-19
-2.87997e-19
-3.73855e-19
-2.75184e-19
-2.64847e-19
-2.57084e-19
-3.58475e-19
-4.09542e-19
-4.27439e-19
-2.16349e-19
-4.13731e-19
-3.51969e-19
-4.27246e-19
-4.16549e-19
-4.12037e-19
-3.34624e-19
-4.00642e-19
-4.71528e-19
-3.49544e-19
-4.24261e-19
-4.28638e-19
-3.05955e-19
-3.28674e-19
-2.75598e-19
-4.65813e-19
-4.13756e-19
-3.0084e-19
-3.52746e-19
-3.66459e-19
-4.71581e-19
-3.37421e-19
-3.86905e-19
-3.31455e-19
-4.37754e-19
-4.20704e-19
-5.23413e-19
-2.59296e-19
-3.34563e-19
-3.49639e-19
-4.14815e-19
-3.74533e-19
-3.19322e-19
-2.45084e-19
-3.6513e-19
-3.44278e-19
-3.09182e-19
-2.86982e-19
-3.49585e-19
-3.46953e-19
-3.45495e-19
-4.33436e-19
-3.66299e-19
-6.03063e-19
-4.60808e-19
-4.16737e-19
-4.28381e-19
-3.63456e-19
-3.13378e-19
-3.54071e-19
-3.67147e-19
-5.19679e-19
-3.05664e-19
-2.78612e-19
-4.74619e-19
-3.3475e-19
-3.65049e-19
-3.1739e-19
-3.91877e-19
-3.25395e-19
-3.49286e-19
-3.80747e-19
-3.15892e-19
-5.44418e-19
-4.03654e-19
-4.38397e-19
-3.42279e-19
-2.9421e-19
-3.34336e-19
-3.17547e-19
-4.66329e-19
-4.27185e-19
-4.32361e-19
-4.04532e-19
-3.39969e-19
-3.94913e-19
-5.38466e-19
-3.11897e-19
-2.70208e-19
-2.50735e-19
-3.48755e-19
-4.67142e-19
-4.11725e-19
-3.90893e-19
-3.94082e-19
-2.02472e-19
-4.67249e-19
-4.36524e-19
-1.07729e-18
-5.7258e-19
-6.31047e-19
-5.93798e-19
-7.02792e-19
-6.88023e-19
-8.68371e-19
-3.98858e-19
-9.43156e-19
-6.63563e-19
-6.41782e-19
-8.35852e-19
-6.3871e-19
-7.87707e-19
-6.56183e-19
-6.50795e-19
-6.13736e-19
-4.98617e-19
-5.78956e-19
-5.4573e-19
-5.73234e-19
-6.96945e-19
-6.57857e-19
-6.13992e-19
-5.63176e-19
-6.30092e-19
-5.30337e-19
-7.63488e-19
-9.0048e-19
-3.82656e-19
-6.95849e-19
-5.95838e-19
-4.69261e-19
-6.53378e-19
-7.77329e-19
-8.10419e-19
-8.68435e-19
-5.67085e-19
-6.00924e-19
-7.42001e-19
-6.56552e-19
-6.11717e-19
-8.39768e-19
-7.33833e-19
-5.89453e-19
-4.72435e-19
-6.93342e-19
-8.08412e-19
-7.14717e-19
-5.77743e-19
-5.13624e-19
-6.90538e-19
-5.69267e-19
-4.43128e-19
-5.67654e-19
-5.51708e-19
-7.88625e-19
-9.15153e-19
-6.3345e-19
-6.45973e-19
-5.60972e-19
-4.84887e-19
-6.24708e-19
-7.73765e-19
-7.86465e-19
-4.73487e-19
-7.63122e-19
-7.46866e-19
-7.62599e-19
-1.08188e-18
-5.59343e-19
-8.886e-19
-6.16571e-19
-6.42888e-19
-5.86923e-19
-6.90187e-19
-7.52366e-19
-7.26313e-19
-5.30615e-19
-5.02976e-19
-7.68275e-19
-6.53968e-19
-6.46099e-19
-9.49736e-19
-8.3849e-19
-8.07367e-19
-9.07744e-19
-6.13984e-19
-6.12909e-19
-8.48891e-19
-8.94761e-19
-6.46247e-19
-6.32841e-19
-6.9384e-19
-6.04431e-19
-7.22841e-19
-5.14193e-19
-1.03825e-18
-5.50322e-19
-7.24194e-19
-7.41836e-19
-4.91936e-19
-6.1648e-19
-8.28236e-19
-5.68011e-19
-7.82228e-19
-6.64433e-19
-7.79837e-19
-6.23409e-19
-7.27541e-19
-7.44968e-19
-9.59053e-19
-9.81689e-19
-9.46841e-19
-6.84011e-19
-6.37661e-19
-8.00997e-19
-9.14804e-19
-8.69459e-19
-7.57348e-19
-8.68716e-19
-6.3862e-19
-6.21373e-19
-7.29696e-19
-7.07803e-19
-8.86641e-19
-8.74222e-19
-7.42706e-19
-6.14555e-19
-8.33096e-19
-6.50207e-19
-8.39155e-19
-7.9888e-19
-5.78078e-19
-9.15857e-19
-8.9152e-19
-8.32356e-19
-6.16433e-19
-4.28723e-19
-6.61456e-19
-4.62537e-19
-6.65376e-19
-8.16294e-19
-5.64288e-19
-6.14407e-19
-7.34667e-19
-6.88605e-19
-6.97055e-19
-7.74621e-19
-6.20687e-19
-7.93265e-19
-6.52345e-19
-7.22223e-19
-7.03114e-19
-7.88454e-19
-7.20292e-19
-6.26702e-19
-7.13869e-19
-7.10433e-19
-5.97931e-19
-7.86305e-19
-4.7799e-19
-5.48328e-19
-3.37285e-19
-1.05244e-18
-7.19895e-19
-6.11254e-19
-7.15778e-19
-5.22934e-19
-6.45907e-19
-6.84916e-19
-8.23484e-19
-9.01571e-19
-6.26184e-19
-7.77592e-19
-7.27407e-19
-6.69707e-19
-6.01196e-19
-7.02808e-19
-6.95999e-19
-5.98335e-19
-7.75736e-19
-7.86196e-19
-8.56755e-19
-6.36106e-19
-6.145e-19
-9.25938e-19
-9.44141e-19
-7.88113e-19
-1.07096e-18
-7.45536e-19
-8.91371e-19
-6.38321e-19
-5.56746e-19
-9.62505e-19
-6.31316e-19
-8.72066e-19
-7.60381e-19
-7.41212e-19
-6.82651e-19
-8.71464e-19
-6.64352e-19
-5.97078e-19
-4.74864e-19
-6.27798e-19
-6.57658e-19
-6.49394e-19
-1.18445e-18
-6.87717e-19
-9.17506e-19
-7.18458e-19
-6.62831e-19
-8.43283e-19
-8.70957e-19
-8.63479e-19
-6.46793e-19
-5.93847e-19
-7.37049e-19
-9.19842e-19
-8.17693e-19
-7.39122e-19
-6.13576e-19
-8.2982e-19
-5.15381e-19
-4.90671e-19
-4.07977e-19
-5.82684e-19
-4.69812e-19
-8.25231e-19
-9.10896e-19
-6.64013e-19
-6.39278e-19
-6.9654e-19
-9.17606e-19
-7.89795e-19
-8.30829e-19
-7.60955e-19
-5.35135e-19
-9.31613e-19
-9.71374e-19
-6.11633e-19
-5.87871e-19
-5.16569e-19
-5.65772e-19
-5.80575e-19
-7.58606e-19
-4.70335e-19
-6.11408e-19
-6.201e-19
-6.6053e-19
-7.83105e-19
-6.63928e-19
-5.61919e-19
-8.07751e-19
-6.81779e-19
-7.78834e-19
-1.54979e-18
-1.19875e-18
-1.1807e-18
-1.44746e-18
-1.36728e-18
-1.53039e-18
-1.21731e-18
-1.16969e-18
-1.29336e-18
-9.48988e-19
-1.53087e-18
-1.35451e-18
-1.36181e-18
-1.45204e-18
-1.25143e-18
-1.09657e-18
-1.36377e-18
-1.52378e-18
-1.47609e-18
-1.43447e-18
-1.28199e-18
-8.91455e-19
-1.71174e-18
-1.16287e-18
-1.16041e-18
-1.16358e-18
-9.98832e-19
-1.45584e-18
-1.63178e-18
-1.14194e-18
-1.11178e-18
-1.06142e-18
-1.26438e-18
-1.34351e-18
-1.31536e-18
-1.2775e-18
-1.35972e-18
-1.19148e-18
-1.27005e-18
-1.33774e-18
-1.15974e-18
-1.14907e-18
-1.47494e-18
-1.15093e-18
-1.01923e-18
-1.33004e-18
-1.37105e-18
-1.29309e-18
-1.06933e-18
-9.25107e-19
-1.11133e-18
-1.5416e-18
-1.55982e-18
-1.36595e-18
-1.12264e-18
-1.08836e-18
-1.0484e-18
-9.1822e-19
-9.27938e-19
-1.09471e-18
-1.11188e-18
-1.27001e-18
-1.32744e-18
-1.38954e-18
-1.11873e-18
-5.44755e-19
-1.45529e-18
-1.36218e-18
-1.09557e-18
-1.19388e-18
-1.08346e-18
-1.20761e-18
-9.93057e-19
-1.02147e-18
-1.44325e-18
-1.0337e-18
-1.03581e-18
-1.18256e-18
-1.18234e-18
-1.21144e-18
-1.36326e-18
-1.34708e-18
-1.62964e-18
-1.56145e-18
-1.8427e-18
-1.59967e-18
-1.41115e-18
-1.37733e-18
-1.38711e-18
-1.17438e-18
-8.92831e-19
-1.33831e-18
-1.00232e-18
-9.60079e-19
-1.77555e-18
-1.26513e-18
-1.56101e-18
-1.12897e-18
-1.00381e-18
-1.34981e-18
-1.39584e-18
-1.03313e-18
-1.30105e-18
-1.35103e-18
-9.20155e-19
-1.09438e-18
-1.26731e-18
-1.56181e-18
-1.46376e-18
-1.32972e-18
-1.9017e-18
-1.90557e-18
-1.50846e-18
-1.76198e-18
-1.26725e-18
-8.62908e-19
-9.36712e-19
-1.18338e-18
-1.25266e-18
-1.44591e-18
-1.32699e-18
-8.21278e-19
-1.10552e-18
-9.61705e-19
-9.11911e-19
-1.30131e-18
-1.43011e-18
-1.75653e-18
-1.54829e-18
-9.54699e-19
-1.19621e-18
-1.26719e-18
-1.17317e-18
-1.17711e-18
-1.73487e-18
-1.26579e-18
-1.01781e-18
-8.86852e-19
-1.19247e-18
-1.10784e-18
-1.37595e-18
-1.11576e-18
-1.18729e-18
-1.54886e-18
-1.27734e-18
-1.31785e-18
-1.62314e-18
-1.1875e-18
-1.43185e-18
-9.55964e-19
-1.512e-18
-1.09709e-18
-1.92975e-18
-1.01758e-18
-1.269e-18
-1.34354e-18
-1.42934e-18
-1.32132e-18
-8.00749e-19
-1.22788e-18
-1.0459e-18
-9.09423e-19
-1.60171e-18
-1.44216e-18
-1.07198e-18
-1.33292e-18
-1.20877e-18
-1.10818e-18
-1.36214e-18
-1.20161e-18
-1.20439e-18
-1.45161e-18
-1.45164e-18
-1.2107e-18
-1.04388e-18
-1.21135e-18
-1.54783e-18
-7.63889e-19
-1.16781e-18
-2.04137e-18
-1.3351e-18
-1.42271e-18
-1.58392e-18
-1.15486e-18
-7.93776e-19
-1.14307e-18
-1.02824e-18
-1.06139e-18
-8.47458e-19
-1.00731e-18
-1.06045e-18
-1.34364e-18
-1.13503e-18
-1.27372e-18
-1.7881e-18
-1.46518e-18
-1.36385e-18
-1.33197e-18
-1.31576e-18
-1.18954e-18
-9.66757e-19
-9.24145e-19
-1.12769e-18
-1.6654e-18
-1.10733e-18
-1.20108e-18
-1.63221e-18
-1.48593e-18
-1.20039e-18
-1.36625e-18
-1.40787e-18
-1.40991e-18
-1.18003e-18
-1.37229e-18
-2.03178e-18
-1.34201e-18
-1.22922e-18
-1.1519e-18
-1.42126e-18
-1.2534e-18
-1.17299e-18
-9.23357e-19
-1.60712e-18
-1.36245e-18
-1.19846e-18
-1.1e-18
-1.34014e-18
-1.08295e-18
-1.80256e-18
-1.57164e-18
-1.5282e-18
-1.52807e-18
-1.07296e-18
-1.27846e-18
-1.26812e-18
-1.27763e-18
-1.38351e-18
-1.19236e-18
-1.11328e-18
-1.36563e-18
-1.11795e-18
-1.26233e-18
-1.03298e-18
-1.84458e-18
-1.07373e-18
-9.99048e-19
-8.61081e-19
-1.23641e-18
-1.29786e-18
-1.45383e-18
-1.14454e-18
-1.09319e-18
-1.32815e-18
-1.08497e-18
-9.01576e-19
-1.18359e-18
-3.06037e-18
-2.34755e-18
-2.21504e-18
-1.9927e-18
-2.46664e-18
-2.68425e-18
-2.43189e-18
-2.17251e-18
-2.98508e-18
-2.33081e-18
-2.22972e-18
-2.18535e-18
-1.89018e-18
-2.06314e-18
-1.73032e-18
-2.79226e-18
-2.96421e-18
-2.50451e-18
-2.1926e-18
-1.99297e-18
-1.87642e-18
-1.97087e-18
-1.71636e-18
-1.92637e-18
-2.16969e-18
-1.8704e-18
-2.72557e-18
-2.93799e-18
-2.10737e-18
-1.63246e-18
-2.54122e-18
-2.64428e-18
-2.66411e-18
-1.60908e-18
-2.28048e-18
-2.19346e-18
-2.35657e-18
-2.45504e-18
-3.14401e-18
-2.25172e-18
-2.7469e-18
-2.8953e-18
-2.86176e-18
-2.14371e-18
-2.19087e-18
-1.86074e-18
-2.15847e-18
-2.93914e-18
-1.7977e-18
-2.37767e-18
-2.42396e-18
-2.41059e-18
-2.9253e-18
-2.98907e-18
-2.38064e-18
-2.60589e-18
-2.41979e-18
-2.48438e-18
-1.63779e-18
-1.43972e-18
-2.40706e-18
-2.66571e-18
-2.54064e-18
-1.89013e-18
-2.3337e-18
-2.27489e-18
-2.19187e-18
-1.69324e-18
-2.31264e-18
-1.96482e-18
-2.26307e-18
-2.04364e-18
-2.39763e-18
-1.94256e-18
-2.20601e-18
-2.83785e-18
-2.475e-18
-2.42536e-18
-2.0589e-18
-2.4066e-18
-2.90083e-18
-1.90602e-18
-2.42445e-18
-2.63362e-18
-2.93791e-18
-2.05082e-18
-2.6136e-18
-2.59087e-18
-2.33527e-18
-2.51149e-18
-2.2032e-18
-1.69001e-18
-2.25105e-18
-2.43945e-18
-2.94739e-18
-2.38327e-18
-1.77996e-18
-2.35193e-18
-2.20872e-18
-3.01924e-18
-2.39501e-18
-2.03562e-18
-2.45945e-18
-2.37349e-18
-2.51176e-18
-2.38786e-18
-1.66022e-18
-2.04577e-18
-2.47196e-18
-2.5272e-18
-2.32974e-18
-2.65305e-18
-2.9743e-18
-2.50084e-18
-2.33538e-18
-2.69315e-18
-2.71195e-18
-1.96918e-18
-2.9854e-18
-2.26191e-18
-2.04632e-18
-2.11554e-18
-2.18043e-18
-2.20836e-18
-1.93627e-18
-1.9669e-18
-2.79905e-18
-2.53024e-18
-1.74919e-18
-2.61105e-18
-2.47372e-18
-2.22155e-18
-2.09368e-18
-2.92089e-18
-2.33538e-18
-2.45246e-18
-2.81933e-18
-2.3346e-18
-2.42532e-18
-2.49887e-18
-2.93071e-18
-1.98921e-18
-2.70979e-18
-2.86883e-18
-1.8726e-18
-1.80447e-18
-1.33014e-18
-2.72146e-18
-2.07864e-18
-2.09044e-18
-2.47469e-18
-2.01715e-18
-2.18842e-18
-2.22818e-18
-1.92645e-18
-2.50433e-18
-2.19585e-18
-2.47173e-18
-1.70547e-18
-1.22074e-18
-2.96709e-18
-1.92942e-18
-2.56532e-18
-2.296e-18
-1.55873e-18
-2.62184e-18
-2.16686e-18
-1.858e-18
-2.47592e-18
-2.04058e-18
-3.26963e-18
-2.10827e-18
-2.14922e-18
-1.60889e-18
-2.29708e-18
-2.13372e-18
-2.31001e-18
-2.34404e-18
-2.02014e-18
-2.55557e-18
-1.93057e-18
-1.79743e-18
-2.53933e-18
-2.4571e-18
-2.92406e-18
-2.18264e-18
-2.93947e-18
-2.36472e-18
-2.43155e-18
-2.28359e-18
-2.22059e-18
-2.68028e-18
-2.60297e-18
-2.12354e-18
-1.93994e-18
-2.40951e-18
-2.02897e-18
-2.30737e-18
-2.56368e-18
-2.58638e-18
-2.5261e-18
-2.55103e-18
-2.20479e-18
-2.53187e-18
-1.87904e-18
-2.51739e-18
-2.6109e-18
-2.40141e-18
-2.94507e-18
-3.38522e-18
-2.37255e-18
-2.6265e-18
-2.12526e-18
-2.04273e-18
-2.73811e-18
-2.91071e-18
-2.87894e-18
-2.10873e-18
-2.51628e-18
-3.74169e-18
-2.12966e-18
-2.44359e-18
-1.95777e-18
-2.33394e-18
-3.09447e-18
-1.81629e-18
-1.94915e-18
-2.7257e-18
-2.55077e-18
-2.49567e-18
-2.3759e-18
-2.57854e-18
-2.792e-18
-1.86234e-18
-2.41317e-18
-1.79809e-18
-2.8539e-18
-3.072e-18
-2.62208e-18
-2.14782e-18
-2.58579e-18
-2.60789e-18
-1.68368e-18
-2.29895e-18
-2.37568e-18
-2.81226e-18
-1.66686e-18
-3.21811e-18
-2.20302e-18
-2.76056e-18
-2.162e-18
-2.64938e-18
-2.36039e-18
-2.2593e-18
-2.80823e-18
-2.04754e-18
-6.96164e-18
-3.65117e-18
-4.28711e-18
-2.68016e-18
-4.03306e-18
-5.20747e-18
-5.07303e-18
-4.64096e-18
-4.87332e-18
-4.82859e-18
-5.62084e-18
-5.57885e-18
-5.58593e-18
-5.67365e-18
-5.7003e-18
-5.49051e-18
-3.88625e-18
-4.10241e-18
-4.10978e-18
-4.17745e-18
-4.47186e-18
-3.13146e-18
-4.36438e-18
-5.30008e-18
-3.79278e-18
-5.35596e-18
-4.69816e-18
-4.85814e-18
-3.97666e-18
-3.56262e-18
-4.40195e-18
-4.12623e-18
-3.1372e-18
-3.34266e-18
-4.76609e-18
-4.98899e-18
-5.38055e-18
-2.74171e-18
-5.42169e-18
-4.61775e-18
-4.00464e-18
-4.04324e-18
-3.95352e-18
-4.174e-18
-3.91499e-18
-3.67651e-18
-3.64691e-18
-5.49215e-18
-3.68036e-18
-5.62293e-18
-4.05159e-18
-4.07245e-18
-2.89763e-18
-4.04543e-18
-4.41138e-18
-4.76086e-18
-4.29297e-18
-3.88941e-18
-4.43266e-18
-4.04684e-18
-5.35325e-18
-4.06768e-18
-5.76367e-18
-4.5786e-18
-4.10442e-18
-3.64432e-18
-3.36552e-18
-3.8313e-18
-3.99798e-18
-4.59187e-18
-3.44203e-18
-4.36474e-18
-2.50479e-18
-3.18643e-18
-3.12017e-18
-4.12798e-18
-3.38756e-18
-4.32792e-18
-3.48817e-18
-3.10385e-18
-3.00194e-18
-3.31529e-18
-3.57995e-18
-4.24368e-18
-5.08006e-18
-3.19361e-18
-5.73197e-18
-4.91244e-18
-4.22841e-18
-5.3808e-18
-4.81364e-18
-5.52487e-18
-5.61577e-18
-4.87213e-18
-3.77054e-18
-3.81577e-18
-3.26151e-18
-5.05458e-18
-3.54837e-18
-5.73255e-18
-5.29441e-18
-5.46557e-18
-5.67386e-18
-4.87904e-18
-3.39266e-18
-4.46534e-18
-3.16864e-18
-4.02663e-18
-4.91053e-18
-5.04458e-18
-5.65519e-18
-3.94299e-18
-4.1332e-18
-4.60614e-18
-3.11064e-18
-4.66088e-18
-4.20658e-18
-5.01621e-18
-4.00014e-18
-3.88833e-18
-4.36329e-18
-4.07e-18
-3.32489e-18
-4.33318e-18
-2.94083e-18
-3.97327e-18
-3.28866e-18
-4.26351e-18
-4.3597e-18
-5.10044e-18
-4.33901e-18
-5.02875e-18
-6.74165e-18
-4.95106e-18
-4.51692e-18
-4.12879e-18
-7.2449e-18
-6.2717e-18
-5.74104e-18
-4.11316e-18
-4.96237e-18
-3.41789e-18
-5.65335e-18
-5.26219e-18
-4.27313e-18
-5.96527e-18
-5.65446e-18
-3.75571e-18
-4.51689e-18
-5.39839e-18
-3.5521e-18
-4.03637e-18
-4.69818e-18
-3.25898e-18
-3.7201e-18
-3.82565e-18
-5.15807e-18
-3.26354e-18
-4.16851e-18
-2.57749e-18
-3.83326e-18
-4.14904e-18
-6.5776e-18
-3.8647e-18
-4.54558e-18
-4.06406e-18
-3.56353e-18
-3.21931e-18
-4.01075e-18
-4.24667e-18
-4.57128e-18
-3.35311e-18
-4.30485e-18
-5.0094e-18
-4.0274e-18
-4.33107e-18
-3.23398e-18
-4.15651e-18
-4.5972e-18
-4.51387e-18
-4.47807e-18
-3.84826e-18
-4.78635e-18
-3.86893e-18
-4.88377e-18
-4.35164e-18
-3.70393e-18
-4.30811e-18
-2.99653e-18
-4.50789e-18
-4.86432e-18
-3.91798e-18
-3.2501e-18
-4.73421e-18
-5.0533e-18
-4.42398e-18
-5.78402e-18
-3.64621e-18
-6.34194e-18
-4.65078e-18
-5.7933e-18
-4.49151e-18
-5.22608e-18
-5.80774e-18
-2.43793e-18
-5.33669e-18
-3.11247e-18
-4.91809e-18
-3.80831e-18
-4.5937e-18
-3.28219e-18
-3.98711e-18
-4.35211e-18
-4.14684e-18
-3.10749e-18
-4.36433e-18
-6.65614e-18
-3.41074e-18
-5.12396e-18
-5.60222e-18
-3.20594e-18
-3.57168e-18
-3.7932e-18
-3.15989e-18
-4.14653e-18
-3.51806e-18
-4.19102e-18
-3.29634e-18
-5.11524e-18
-5.12587e-18
-3.96181e-18
-5.4589e-18
-5.12302e-18
-4.1165e-18
-4.56515e-18
-4.7738e-18
-3.91303e-18
-3.9573e-18
-4.17407e-18
-3.94767e-18
-3.29133e-18
-3.50065e-18
-3.68263e-18
-3.84304e-18
-5.77977e-18
-4.25527e-18
-2.92652e-18
-3.4094e-18
-2.99266e-18
-2.71816e-18
-4.55097e-18
-3.96407e-18
-3.81974e-18
-4.35023e-18
-4.42797e-18
-3.45378e-18
-1.4476e-17
-8.81737e-18
-8.25409e-18
-9.41366e-18
-7.13394e-18
-8.74207e-18
-7.58217e-18
-9.30105e-18
-8.87222e-18
-6.61372e-18
-7.50909e-18
-6.66341e-18
-1.17188e-17
-1.12633e-17
-9.50897e-18
-7.62024e-18
-1.10986e-17
-8.49521e-18
-8.69918e-18
-1.1066e-17
-8.88589e-18
-9.24406e-18
-7.95078e-18
-7.28542e-18
-9.76193e-18
-7.05413e-18
-5.96699e-18
-9.74109e-18
-6.73901e-18
-9.33025e-18
-8.31968e-18
-6.38851e-18
-5.34656e-18
-7.86959e-18
-8.01678e-18
-7.02443e-18
-7.92617e-18
-7.61218e-18
-8.26968e-18
-6.53267e-18
-8.74047e-18
-9.52092e-18
-9.5225e-18
-9.74701e-18
-9.5253e-18
-7.62485e-18
-7.3183e-18
-9.60929e-18
-8.92366e-18
-1.02144e-17
-8.73185e-18
-8.33818e-18
-7.38005e-18
-5.40696e-18
-6.45036e-18
-7.92235e-18
-7.29613e-18
-7.91428e-18
-6.93503e-18
-6.37076e-18
-5.39255e-18
-7.63325e-18
-1.01761e-17
-9.89226e-18
-6.60357e-18
-7.50626e-18
-6.67045e-18
-8.24407e-18
-6.01496e-18
-8.80786e-18
-6.98187e-18
-8.81378e-18
-8.01614e-18
-8.36306e-18
-8.86208e-18
-1.09964e-17
-7.39822e-18
-1.18476e-17
-9.92626e-18
-5.27824e-18
-7.57373e-18
-9.97763e-18
-7.62328e-18
-1.03042e-17
-7.21612e-18
-8.06276e-18
-8.79105e-18
-7.33892e-18
-8.49024e-18
-9.51968e-18
-7.2667e-18
-6.78335e-18
-7.94677e-18
-8.63403e-18
-1.12691e-17
-8.5927e-18
-5.96073e-18
-9.43746e-18
-9.31136e-18
-6.67127e-18
-7.87771e-18
-1.00349e-17
-9.22205e-18
-6.74051e-18
-7.55839e-18
-1.00575e-17
-7.75564e-18
-9.70295e-18
-1.0217e-17
-8.25059e-18
-1.26997e-17
-9.44488e-18
-9.43593e-18
-7.70965e-18
-5.6429e-18
-6.53302e-18
-7.25415e-18
-6.32601e-18
-7.29361e-18
-8.41511e-18
-8.76693e-18
-8.99757e-18
-5.68316e-18
-5.17503e-18
-6.36137e-18
-8.76238e-18
-9.48848e-18
-6.43697e-18
-6.95243e-18
-5.83952e-18
-8.70857e-18
-9.82792e-18
-7.84394e-18
-8.45134e-18
-8.12716e-18
-1.06457e-17
-1.13674e-17
-1.04068e-17
-6.51145e-18
-8.73645e-18
-8.94964e-18
-8.37942e-18
-9.27946e-18
-8.31533e-18
-8.71116e-18
-8.24131e-18
-8.14928e-18
-7.83246e-18
-6.41943e-18
-6.43011e-18
-6.78423e-18
-5.72589e-18
-7.46123e-18
-5.622e-18
-8.28797e-18
-1.03471e-17
-6.25203e-18
-5.39879e-18
-6.82162e-18
-8.89336e-18
-6.22083e-18
-4.39652e-18
-7.97144e-18
-8.05117e-18
-5.73237e-18
-7.12347e-18
-6.30885e-18
-7.28737e-18
-8.61202e-18
-7.75435e-18
-7.83021e-18
-8.94188e-18
-9.10775e-18
-6.30677e-18
-9.9013e-18
-8.81332e-18
-7.42321e-18
-6.22347e-18
-8.64338e-18
-9.32721e-18
-8.47443e-18
-9.54365e-18
-1.10873e-17
-7.43386e-18
-1.17994e-17
-1.05476e-17
-7.18127e-18
-7.25964e-18
-7.87231e-18
-7.03236e-18
-1.08627e-17
-5.5381e-18
-8.86582e-18
-1.02607e-17
-7.539e-18
-6.53773e-18
-7.56953e-18
-7.26792e-18
-6.56594e-18
-1.03771e-17
-8.88542e-18
-6.90247e-18
-8.21789e-18
-7.5305e-18
-8.16848e-18
-6.70572e-18
-7.95589e-18
-5.93878e-18
-5.09476e-18
-6.85697e-18
-6.5491e-18
-9.24892e-18
-7.40766e-18
-7.88019e-18
-7.29127e-18
-7.93946e-18
-7.46977e-18
-7.90011e-18
-6.92344e-18
-1.20412e-17
-9.77693e-18
-8.63535e-18
-8.04561e-18
-5.07281e-18
-8.66003e-18
-7.96688e-18
-6.55275e-18
-7.26592e-18
-8.33245e-18
-9.96642e-18
-1.24877e-17
-9.44862e-18
-6.2586e-18
-7.82772e-18
-7.94673e-18
-8.50138e-18
-1.01934e-17
-6.70274e-18
-8.1968e-18
-8.51605e-18
-8.45802e-18
-8.90322e-18
-5.42853e-18
-6.57855e-18
-7.35552e-18
-9.04665e-18
-7.13765e-18
-9.6851e-18
-8.30543e-18
-8.62398e-18
-5.86753e-18
-8.49752e-18
-8.90336e-18
-7.34097e-18
-7.79598e-18
-8.14455e-18
-1.78263e-17
-1.19971e-17
-1.67114e-17
-1.36688e-17
-1.68438e-17
-1.90841e-17
-1.47979e-17
-1.4371e-17
-1.50418e-17
-1.43237e-17
-1.71989e-17
-1.55043e-17
-2.07472e-17
-1.56067e-17
-1.59103e-17
-1.87426e-17
-1.74688e-17
-2.04238e-17
-1.51479e-17
-1.33116e-17
-1.27131e-17
-1.44415e-17
-1.30434e-17
-1.31384e-17
-1.0013e-17
-9.25077e-18
-1.83645e-17
-1.14161e-17
-1.42733e-17
-9.26999e-18
-1.39957e-17
-2.13849e-17
-1.5479e-17
-1.86194e-17
-1.45214e-17
-1.46767e-17
-1.45307e-17
-1.86903e-17
-1.44903e-17
-1.71658e-17
-1.1539e-17
-1.40892e-17
-1.33012e-17
-1.22292e-17
-1.30036e-17
-1.39767e-17
-1.32446e-17
-1.48877e-17
-1.71335e-17
-1.78794e-17
-1.26751e-17
-1.46431e-17
-1.21885e-17
-1.11753e-17
-1.26331e-17
-1.64597e-17
-1.09712e-17
-8.54292e-18
-1.55493e-17
-1.28772e-17
-1.325e-17
-1.39889e-17
-1.145e-17
-1.51721e-17
-1.55184e-17
-1.40528e-17
-1.67994e-17
-1.7267e-17
-1.32643e-17
-1.24922e-17
-1.40389e-17
-1.38967e-17
-1.06083e-17
-1.72089e-17
-1.04744e-17
-1.79263e-17
-1.40254e-17
-1.36545e-17
-1.9271e-17
-9.61258e-18
-1.66043e-17
-1.67525e-17
-1.34298e-17
-1.75902e-17
-1.45071e-17
-1.84836e-17
-1.81564e-17
-1.74944e-17
-1.23932e-17
-1.2961e-17
-1.66688e-17
-1.61723e-17
-2.27899e-17
-1.18996e-17
-1.32196e-17
-1.97453e-17
-1.68272e-17
-1.77932e-17
-1.74472e-17
-2.1155e-17
-1.94522e-17
-1.50025e-17
-1.60296e-17
-1.86536e-17
-1.68825e-17
-1.79206e-17
-1.28882e-17
-1.39686e-17
-1.399e-17
-1.78885e-17
-1.27939e-17
-1.80778e-17
-1.29223e-17
-1.57219e-17
-1.12218e-17
-1.60379e-17
-1.09125e-17
-1.33457e-17
-1.18451e-17
-1.52697e-17
-1.25476e-17
-1.19925e-17
-1.45609e-17
-1.38907e-17
-1.37255e-17
-1.44925e-17
-1.79665e-17
-1.85857e-17
-1.46737e-17
-1.55688e-17
-1.34194e-17
-1.72745e-17
-1.49049e-17
-1.74252e-17
-1.27326e-17
-1.63413e-17
-1.30717e-17
-1.44018e-17
-1.39399e-17
-1.25845e-17
-1.51197e-17
-1.60199e-17
-1.64288e-17
-1.24006e-17
-1.76641e-17
-1.72031e-17
-1.6176e-17
-1.28417e-17
-1.35116e-17
-1.48335e-17
-1.28811e-17
-9.71085e-18
-1.45379e-17
-1.55317e-17
-1.70143e-17
-1.48648e-17
-1.40307e-17
-1.96283e-17
-1.7857e-17
-1.26809e-17
-1.20764e-17
-1.61114e-17
-1.89744e-17
-1.79117e-17
-1.522e-17
-8.02647e-18
-1.37911e-17
-1.22718e-17
-1.84403e-17
-1.37468e-17
-1.47303e-17
-1.89885e-17
-1.49948e-17
-1.70045e-17
-1.55262e-17
-1.38244e-17
-1.4827e-17
-1.21776e-17
-1.77471e-17
-1.92616e-17
-1.79861e-17
-1.61305e-17
-1.24944e-17
-1.50219e-17
-2.07162e-17
-1.50166e-17
-2.03528e-17
-1.3448e-17
-1.89395e-17
-1.10805e-17
-1.04761e-17
-1.89205e-17
-1.30585e-17
-1.62763e-17
-1.93411e-17
-1.58146e-17
-1.17347e-17
-1.69056e-17
-1.82809e-17
-1.468e-17
-1.9413e-17
-1.64475e-17
-1.16567e-17
-1.73583e-17
-1.65863e-17
-1.38527e-17
-1.80802e-17
-2.47665e-17
-1.07224e-17
-1.68237e-17
-1.02002e-17
-1.39505e-17
-1.59472e-17
-1.30287e-17
-1.46518e-17
-1.65745e-17
-1.66287e-17
-1.60265e-17
-1.09821e-17
-1.36782e-17
-1.65579e-17
-1.83949e-17
-1.73148e-17
-1.25719e-17
-1.83969e-17
-1.52576e-17
-1.37095e-17
-1.98681e-17
-1.77583e-17
-1.31855e-17
-2.20344e-17
-1.62654e-17
-1.51398e-17
-1.59913e-17
-1.50411e-17
-1.3864e-17
-9.24778e-18
-1.02015e-17
-1.58967e-17
-1.90781e-17
-1.48484e-17
-1.66962e-17
-1.95825e-17
-1.11451e-17
-1.37907e-17
-1.47075e-17
-1.3036e-17
-1.38559e-17
-1.32494e-17
-1.51461e-17
-1.49134e-17
-1.383e-17
-1.63607e-17
-1.41072e-17
-1.3786e-17
-1.40406e-17
-3.64413e-17
-2.52656e-17
-2.23069e-17
-2.21757e-17
-2.77466e-17