# vtk DataFile Version 1.0
Electron Density - Current Sheet 
ASCII
DATASET STRUCTURED_POINTS
DIMENSIONS 256 128 1
ORIGIN 0 0 0
SPACING 0.15625 0.15625 1
POINT_DATA 32768
SCALARS rhoe float
LOOKUP_TABLE default
-1.5671e-19
-1.68828e-19
-1.34105e-19
-9.69327e-20
-1.44456e-19
-1.26647e-19
-1.92827e-19
-2.13358e-19
-2.29307e-19
-2.94137e-19
-1.89659e-19
-1.23489e-19
-1.52137e-19
-1.31403e-19
-2.1114e-19
-2.07654e-19
-1.89047e-19
-1.92193e-19
-1.79852e-19
-2.38701e-19
-2.29765e-19
-1.58222e-19
-1.76457e-19
-1.67456e-19
-1.54599e-19
-1.47488e-19
-1.99684e-19
-1.34818e-19
-2.45166e-19
-1.54786e-19
-2.02138e-19
-1.8201e-19
-1.75954e-19
-2.18524e-19
-1.94363e-19
-1.9453e-19
-1.22843e-19
-2.26885e-19
-2.4696e-19
-1.53959e-19
-1.69331e-19
-1.1947e-19
-2.59301e-19
-1.97786e-19
-1.15169e-19
-1.66024e-19
-1.71252e-19
-1.82926e-19
-2.47557e-19
-2.20895e-19
-1.15381e-19
-1.49146e-19
-1.81131e-19
-1.61915e-19
-2.45185e-19
-2.60453e-19
-1.86642e-19
-1.80005e-19
-1.342e-19
-1.74965e-19
-1.73431e-19
-1.67223e-19
-1.97871e-19
-2.17381e-19
-2.41608e-19
-1.02991e-19
-1.44019e-19
-2.20089e-19
-1.69661e-19
-1.57483e-19
-1.71887e-19
-2.19834e-19
-1.52948e-19
-1.0854e-19
-1.30116e-19
-1.99612e-19
-1.61212e-19
-1.70642e-19
-2.38959e-19
-1.49583e-19
-1.47349e-19
-2.11437e-19
-1.99939e-19
-1.40924e-19
-2.46635e-19
-1.21368e-19
-1.67206e-19
-1.46898e-19
-2.27347e-19
-1.62784e-19
-2.21201e-19
-1.91368e-19
-1.25627e-19
-1.28189e-19
-2.28268e-19
-1.48092e-19
-1.26858e-19
-2.23721e-19
-1.79879e-19
-1.07733e-19
-1.81588e-19
-1.90336e-19
-2.04523e-19
-1.80803e-19
-1.98531e-19
-1.89418e-19
-1.3945e-19
-1.27357e-19
-1.47987e-19
-1.462e-19
-1.63403e-19
-2.18712e-19
-2.27409e-19
-1.82866e-19
-2.51585e-19
-1.29703e-19
-1.72832e-19
-1.42698e-19
-1.45457e-19
-1.76534e-19
-2.14733e-19
-1.20136e-19
-1.81751e-19
-1.25117e-19
-2.27112e-19
-1.98824e-19
-1.95811e-19
-2.10241e-19
-2.25349e-19
-2.63301e-19
-1.96947e-19
-2.48071e-19
-2.19005e-19
-3.20019e-19
-2.55924e-19
-1.87428e-19
-2.20643e-19
-1.79547e-19
-1.57797e-19
-2.17155e-19
-1.59872e-19
-1.66866e-19
-1.47993e-19
-1.26436e-19
-1.41025e-19
-2.00148e-19
-1.49929e-19
-1.50961e-19
-2.27287e-19
-1.59345e-19
-1.57453e-19
-1.44871e-19
-1.90995e-19
-1.96824e-19
-1.5439e-19
-1.91993e-19
-1.52085e-19
-1.71049e-19
-1.79035e-19
-1.24857e-19
-1.64492e-19
-1.75274e-19
-1.44889e-19
-1.20874e-19
-1.54987e-19
-1.94776e-19
-1.34687e-19
-1.21593e-19
-1.64822e-19
-1.79931e-19
-2.20082e-19
-1.72036e-19
-2.40783e-19
-2.25803e-19
-3.51236e-19
-1.9348e-19
-1.85563e-19
-1.26685e-19
-1.90333e-19
-1.82278e-19
-2.2791e-19
-1.53845e-19
-1.18787e-19
-1.57306e-19
-2.44175e-19
-1.45871e-19
-1.38301e-19
-9.34489e-20
-1.88516e-19
-1.52115e-19
-7.77642e-20
-1.52761e-19
-1.38371e-19
-1.96975e-19
-2.09112e-19
-1.5102e-19
-2.53553e-19
-1.55478e-19
-2.20369e-19
-1.09731e-19
-1.32893e-19
-1.25297e-19
-1.64526e-19
-1.49232e-19
-9.92947e-20
-1.73245e-19
-1.60126e-19
-1.2603e-19
-1.89702e-19
-1.96967e-19
-1.71269e-19
-1.89381e-19
-1.85084e-19
-2.08795e-19
-1.8827e-19
-2.58783e-19
-1.55393e-19
-1.32145e-19
-1.62771e-19
-1.85855e-19
-1.05283e-19
-1.76381e-19
-2.77595e-19
-1.6075e-19
-2.45249e-19
-1.84281e-19
-1.70128e-19
-1.85229e-19
-2.28109e-19
-2.73055e-19
-2.91533e-19
-2.25073e-19
-1.89034e-19
-1.71963e-19
-1.6664e-19
-1.74351e-19
-1.66442e-19
-1.01766e-19
-9.11607e-20
-1.21191e-19
-1.52098e-19
-1.85457e-19
-1.48743e-19
-2.05751e-19
-1.38916e-19
-1.9408e-19
-1.80946e-19
-1.85919e-19
-2.18914e-19
-1.52009e-19
-1.87072e-19
-2.34377e-19
-2.13486e-19
-1.00945e-19
-1.43987e-19
-1.60158e-19
-2.4963e-19
-2.15018e-19
-1.86037e-19
-2.51057e-19
-2.34639e-19
-2.56759e-19
-2.49502e-19
-2.51826e-19
-2.32109e-19
-1.75638e-19
-1.87221e-19
-2.30193e-19
-2.09927e-19
-1.8487e-19
-2.13813e-19
-1.73856e-19
-1.87739e-19
-2.26227e-19
-1.98419e-19
-2.31266e-19
-3.15684e-19
-1.99742e-19
-1.35737e-19
-1.54678e-19
-2.28309e-19
-2.0753e-19
-2.84272e-19
-2.3485e-19
-1.83657e-19
-1.97389e-19
-2.43365e-19
-1.94521e-19
-2.33393e-19
-2.42358e-19
-1.86905e-19
-1.79173e-19
-2.46167e-19
-3.34557e-19
-2.7107e-19
-2.52146e-19
-2.39152e-19
-1.42302e-19
-1.97489e-19
-2.64326e-19
-2.10999e-19
-1.46668e-19
-1.9187e-19
-2.23655e-19
-1.63488e-19
-2.06796e-19
-1.86245e-19
-2.23343e-19
-2.09376e-19
-1.99597e-19
-2.54423e-19
-1.9491e-19
-2.14354e-19
-1.93339e-19
-2.20386e-19
-3.28186e-19
-2.42552e-19
-2.33704e-19
-1.86846e-19
-1.90909e-19
-2.15805e-19
-1.94385e-19
-2.21633e-19
-2.26627e-19
-1.94726e-19
-1.74266e-19
-2.08199e-19
-2.59129e-19
-2.75353e-19
-2.41098e-19
-1.83971e-19
-1.21349e-19
-1.79373e-19
-1.60074e-19
-1.94196e-19
-1.96364e-19
-2.50012e-19
-2.52761e-19
-2.46389e-19
-1.68985e-19
-1.98755e-19
-2.03193e-19
-3.15442e-19
-2.32867e-19
-2.7552e-19
-2.06394e-19
-2.29977e-19
-1.72407e-19
-2.37052e-19
-2.02776e-19
-2.05903e-19
-2.14199e-19
-2.35201e-19
-1.59862e-19
-2.80344e-19
-2.99063e-19
-2.14712e-19
-2.29049e-19
-2.08496e-19
-2.14374e-19
-3.13891e-19
-3.09514e-19
-2.54754e-19
-1.70353e-19
-1.79291e-19
-1.59086e-19
-1.61046e-19
-2.28159e-19
-1.86781e-19
-2.29852e-19
-2.04097e-19
-2.36236e-19
-1.80097e-19
-2.30672e-19
-1.62319e-19
-1.82781e-19
-2.18706e-19
-2.45109e-19
-2.34431e-19
-1.98305e-19
-2.64829e-19
-2.18142e-19
-2.64076e-19
-2.63067e-19
-2.38418e-19
-2.08271e-19
-2.71063e-19
-2.60392e-19
-2.2152e-19
-2.23399e-19
-1.61824e-19
-1.70636e-19
-2.90603e-19
-2.55934e-19
-2.36793e-19
-1.98317e-19
-1.99665e-19
-1.88286e-19
-2.44916e-19
-1.90907e-19
-2.68476e-19
-2.30839e-19
-1.99061e-19
-2.84749e-19
-2.49228e-19
-1.60471e-19
-1.72986e-19
-1.84125e-19
-2.525e-19
-1.39213e-19
-2.02804e-19
-2.00024e-19
-1.74097e-19
-1.37536e-19
-1.9755e-19
-2.22608e-19
-1.82412e-19
-1.91034e-19
-1.92017e-19
-2.09431e-19
-2.42488e-19
-1.99722e-19
-1.93431e-19
-1.77958e-19
-2.08721e-19
-2.18328e-19
-3.02604e-19
-2.66554e-19
-1.86768e-19
-2.09637e-19
-2.4338e-19
-1.64305e-19
-2.51168e-19
-1.61665e-19
-2.68098e-19
-1.8295e-19
-1.67706e-19
-1.87422e-19
-1.78511e-19
-1.28048e-19
-2.21547e-19
-1.50956e-19
-1.63997e-19
-1.6048e-19
-1.93525e-19
-1.83647e-19
-1.91096e-19
-2.38198e-19
-2.62791e-19
-1.71803e-19
-2.37611e-19
-2.14843e-19
-2.11921e-19
-2.41569e-19
-1.90706e-19
-2.72154e-19
-2.04652e-19
-2.03707e-19
-2.06312e-19
-1.20067e-19
-1.46679e-19
-1.89781e-19
-2.18453e-19
-2.86197e-19
-2.21175e-19
-2.09668e-19
-2.39742e-19
-1.94487e-19
-1.8471e-19
-1.80461e-19
-2.22316e-19
-2.87469e-19
-2.39766e-19
-1.61408e-19
-1.85122e-19
-2.90968e-19
-2.67453e-19
-2.671e-19
-2.53903e-19
-1.90069e-19
-1.96653e-19
-2.63875e-19
-2.13741e-19
-2.08113e-19
-2.05457e-19
-2.14558e-19
-2.29425e-19
-2.75538e-19
-2.32425e-19
-2.17088e-19
-2.51127e-19
-2.78234e-19
-2.551e-19
-2.40127e-19
-2.04612e-19
-1.9632e-19
-1.7039e-19
-2.48327e-19
-2.04053e-19
-2.06485e-19
-2.49822e-19
-1.78589e-19
-2.58735e-19
-2.32259e-19
-2.52915e-19
-2.22917e-19
-2.0794e-19
-2.45349e-19
-1.81843e-19
-2.41094e-19
-1.79962e-19
-1.66674e-19
-4.16971e-19
-3.46505e-19
-3.37737e-19
-2.72737e-19
-3.72585e-19
-3.87088e-19
-4.6747e-19
-3.75591e-19
-4.6101e-19
-3.58676e-19
-5.2398e-19
-4.8774e-19
-3.67469e-19
-3.29214e-19
-3.32187e-19
-3.53028e-19
-2.78183e-19
-4.08386e-19
-3.42825e-19
-3.36295e-19
-2.54942e-19
-4.57862e-19
-4.25976e-19
-4.0006e-19
-3.12633e-19
-4.02057e-19
-5.11461e-19
-4.66885e-19
-3.67277e-19
-3.63136e-19
-4.25723e-19
-4.12831e-19
-4.22269e-19
-3.41237e-19
-3.99373e-19
-2.64853e-19
-4.02942e-19
-2.43257e-19
-3.75883e-19
-4.4518e-19
-3.53827e-19
-2.82672e-19
-2.98033e-19
-3.44579e-19
-3.32279e-19
-4.03103e-19
-3.81341e-19
-3.07317e-19
-4.77963e-19
-3.07343e-19
-3.11797e-19
-4.32907e-19
-3.75704e-19
-2.33489e-19
-3.7929e-19
-3.35725e-19
-2.97124e-19
-3.93915e-19
-4.13088e-19
-5.37617e-19
-3.52179e-19
-4.88222e-19
-3.82846e-19
-3.99675e-19
-3.60604e-19
-3.80184e-19
-3.9546e-19
-4.29049e-19
-4.01846e-19
-3.27078e-19
-5.04072e-19
-4.0029e-19
-2.56546e-19
-3.53614e-19
-3.57706e-19
-3.02228e-19
-3.27128e-19
-2.5468e-19
-3.30674e-19
-3.84386e-19
-3.8721e-19
-4.50222e-19
-4.50268e-19
-4.36269e-19
-3.46159e-19
-3.75774e-19
-4.01468e-19
-3.7168e-19
-4.5574e-19
-3.5624e-19
-4.20804e-19
-4.02817e-19
-4.00196e-19
-5.20057e-19
-5.06624e-19
-4.55868e-19
-4.33108e-19
-3.96439e-19
-2.72506e-19
-3.01858e-19
-3.16876e-19
-3.50993e-19
-4.83098e-19
-3.48044e-19
-3.03076e-19
-4.63917e-19
-2.74836e-19
-3.83474e-19
-4.49838e-19
-5.17033e-19
-4.58181e-19
-5.21194e-19
-4.54826e-19
-3.71855e-19
-3.8529e-19
-4.22484e-19
-5.26168e-19
-2.92316e-19
-2.72909e-19
-3.08779e-19
-4.23246e-19
-3.59871e-19
-4.53461e-19
-5.08501e-19
-3.62323e-19
-4.06998e-19
-3.5088e-19
-5.38309e-19
-3.16249e-19
-3.6943e-19
-4.58737e-19
-2.75195e-19
-3.9972e-19
-3.75873e-19
-4.09743e-19
-5.67329e-19
-4.40456e-19
-5.282e-19
-3.4025e-19
-3.2291e-19
-3.30633e-19
-3.75209e-19
-3.36125e-19
-4.07297e-19
-4.21084e-19
-6.00082e-19
-4.65194e-19
-4.29079e-19
-2.78961e-19
-3.23202e-19
-2.43995e-19
-3.44862e-19
-4.17492e-19
-2.61581e-19
-3.58222e-19
-3.18307e-19
-2.67002e-19
-3.6059e-19
-3.17479e-19
-2.98054e-19
-2.91333e-19
-3.35939e-19
-3.68662e-19
-3.4469e-19
-4.32993e-19
-4.15815e-19
-3.91472e-19
-2.88961e-19
-3.85707e-19
-2.59232e-19
-4.07006e-19
-4.98586e-19
-5.57256e-19
-4.28379e-19
-3.58581e-19
-3.68883e-19
-3.6915e-19
-2.72256e-19
-4.0251e-19
-3.41654e-19
-3.31002e-19
-2.52074e-19
-3.33342e-19
-2.48541e-19
-3.34005e-19
-3.71586e-19
-4.08575e-19
-3.71711e-19
-4.02699e-19
-2.99027e-19
-4.30218e-19
-4.0277e-19
-3.31381e-19
-3.53536e-19
-3.04132e-19
-4.32846e-19
-4.12527e-19
-3.69518e-19
-3.3148e-19
-3.04432e-19
-3.43554e-19
-3.12676e-19
-2.67429e-19
-3.38706e-19
-3.04579e-19
-3.70709e-19
-2.39846e-19
-3.63554e-19
-3.54875e-19
-3.74808e-19
-3.36306e-19
-3.93213e-19
-3.13206e-19
-3.75213e-19
-4.27246e-19
-5.41156e-19
-4.23393e-19
-4.2996e-19
-3.54553e-19
-5.39314e-19
-3.70603e-19
-3.4744e-19
-3.05165e-19
-2.98394e-19
-3.61994e-19
-4.34289e-19
-4.29705e-19
-4.02253e-19
-4.72508e-19
-4.35459e-19
-3.19525e-19
-4.77248e-19
-4.78667e-19
-4.2446e-19
-3.11591e-19
-3.60677e-19
-3.78373e-19
-3.45395e-19
-4.63853e-19
-4.03563e-19
-4.92878e-19
-3.28945e-19
-2.27337e-19
-3.5948e-19
-4.00641e-19
-3.19141e-19
-3.45967e-19
-3.55533e-19
-4.88523e-19
-3.93543e-19
-4.20316e-19
-4.02486e-19
-3.41075e-19
-2.40464e-19
-3.92864e-19
-3.97371e-19
-9.73346e-19
-6.30602e-19
-5.30396e-19
-5.1453e-19
-8.17269e-19
-4.76092e-19
-6.58787e-19
-6.8674e-19
-8.51644e-19
-8.23924e-19
-7.97469e-19
-4.80225e-19
-6.39485e-19
-7.52535e-19
-1.07163e-18
-4.42686e-19
-5.04775e-19
-6.36774e-19
-7.57234e-19
-3.97702e-19
-5.29907e-19
-5.53158e-19
-7.72477e-19
-7.65835e-19
-6.63042e-19
-7.925e-19
-6.77148e-19
-7.43341e-19
-7.41543e-19
-8.5694e-19
-8.72901e-19
-8.53398e-19
-5.31554e-19
-9.40751e-19
-6.42577e-19
-7.29176e-19
-7.66004e-19
-5.70994e-19
-3.95333e-19
-6.72042e-19
-6.17669e-19
-5.07487e-19
-6.32748e-19
-8.43454e-19
-5.57217e-19
-5.13399e-19
-6.06449e-19
-6.57773e-19
-7.94131e-19
-6.72363e-19
-4.86021e-19
-7.53214e-19
-6.13873e-19
-7.02336e-19
-8.62468e-19
-7.86249e-19
-8.4115e-19
-7.30873e-19
-7.09634e-19
-7.35018e-19
-7.32349e-19
-7.73781e-19
-5.78501e-19
-5.20538e-19
-7.17199e-19
-6.51274e-19
-7.49133e-19
-6.84161e-19
-7.75692e-19
-7.92548e-19
-5.10812e-19
-6.59461e-19
-9.1362e-19
-6.06425e-19
-6.2564e-19
-5.81173e-19
-6.68881e-19
-7.65298e-19
-6.14186e-19
-6.76051e-19
-9.93257e-19
-8.12898e-19
-5.33519e-19
-8.05959e-19
-6.79645e-19
-6.43255e-19
-7.24504e-19
-6.54114e-19
-7.5721e-19
-1.03612e-18
-8.80212e-19
-8.1135e-19
-6.36726e-19
-8.95003e-19
-5.92172e-19
-6.73625e-19
-7.69973e-19
-6.38091e-19
-6.08505e-19
-7.26663e-19
-8.29265e-19
-5.68535e-19
-5.23036e-19
-6.46639e-19
-6.43932e-19
-5.88726e-19
-6.97514e-19
-6.17863e-19
-5.37639e-19
-6.65105e-19
-7.06965e-19
-7.11171e-19
-7.39563e-19
-8.99398e-19
-8.25007e-19
-6.43509e-19
-5.87579e-19
-6.41129e-19
-6.50314e-19
-8.10066e-19
-6.41351e-19
-4.11905e-19
-5.8787e-19
-7.72779e-19
-8.25348e-19
-9.37074e-19
-5.39084e-19
-7.1898e-19
-8.86971e-19
-5.38831e-19
-6.80868e-19
-8.3347e-19
-1.02045e-18
-9.01353e-19
-9.11941e-19
-6.77785e-19
-8.17585e-19
-5.86053e-19
-6.97393e-19
-7.37587e-19
-5.81737e-19
-6.56636e-19
-9.16197e-19
-5.95492e-19
-6.81867e-19
-7.75905e-19
-6.88531e-19
-6.06381e-19
-6.37547e-19
-4.76832e-19
-8.18693e-19
-6.00995e-19
-7.72799e-19
-7.22359e-19
-7.94798e-19
-6.35351e-19
-5.31371e-19
-6.9792e-19
-6.5801e-19
-5.80731e-19
-5.49065e-19
-7.25845e-19
-6.19644e-19
-7.14674e-19
-7.94705e-19
-7.25696e-19
-6.91547e-19
-6.02152e-19
-6.87844e-19
-8.69545e-19
-8.23096e-19
-9.29443e-19
-8.77608e-19
-6.39131e-19
-5.87808e-19
-5.9771e-19
-6.54138e-19
-5.21144e-19
-6.32828e-19
-7.332e-19
-4.83225e-19
-3.99767e-19
-7.00683e-19
-8.0823e-19
-6.37927e-19
-6.60082e-19
-7.65002e-19
-6.11145e-19
-5.58342e-19
-7.61119e-19
-6.03305e-19
-6.75294e-19
-6.55376e-19
-7.39626e-19
-6.3892e-19
-9.14e-19
-6.98151e-19
-6.45815e-19
-8.03998e-19
-5.72953e-19
-7.28049e-19
-7.35578e-19
-7.29757e-19
-7.49386e-19
-5.87885e-19
-5.27435e-19
-5.49976e-19
-7.35841e-19
-6.39075e-19
-5.23822e-19
-6.51249e-19
-8.43504e-19
-6.84378e-19
-7.89974e-19
-8.29775e-19
-6.66409e-19
-9.51543e-19
-7.33546e-19
-9.6501e-19
-9.92244e-19
-5.11816e-19
-5.94886e-19
-9.84818e-19
-9.1761e-19
-7.81548e-19
-5.44486e-19
-9.87639e-19
-9.50919e-19
-8.68859e-19
-9.08195e-19
-8.42713e-19
-5.60639e-19
-6.97975e-19
-7.40585e-19
-7.39841e-19
-8.32458e-19
-6.37289e-19
-6.38307e-19
-6.0403e-19
-6.00878e-19
-9.04145e-19
-7.23947e-19
-6.28803e-19
-7.79689e-19
-6.72993e-19
-7.19867e-19
-6.5704e-19
-8.94418e-19
-6.43738e-19
-8.71812e-19
-5.14829e-19
-6.02516e-19
-5.77785e-19
-6.38357e-19
-5.43653e-19
-7.16725e-19
-1.31622e-18
-1.25484e-18
-1.12584e-18
-1.34458e-18
-1.21216e-18
-1.60856e-18
-1.01918e-18
-1.03174e-18
-1.444e-18
-1.26018e-18
-1.0885e-18
-1.06819e-18
-1.05297e-18
-1.84957e-18
-1.54658e-18
-1.47024e-18
-1.37912e-18
-1.47155e-18
-1.16321e-18
-1.30232e-18
-1.0118e-18
-1.20146e-18
-1.34255e-18
-1.40435e-18
-1.40324e-18
-1.7569e-18
-1.23917e-18
-1.08957e-18
-1.02958e-18
-1.59041e-18
-1.39921e-18
-1.74819e-18
-1.55278e-18
-1.19968e-18
-1.6109e-18
-1.1268e-18
-1.11277e-18
-1.02641e-18
-1.19874e-18
-1.44503e-18
-1.38343e-18
-1.35989e-18
-1.32365e-18
-1.24771e-18
-1.00738e-18
-1.25134e-18
-1.33586e-18
-1.21774e-18
-1.44205e-18
-1.16298e-18
-1.11006e-18
-1.21157e-18
-1.40504e-18
-1.27804e-18
-1.02586e-18
-1.08292e-18
-1.08517e-18
-1.22862e-18
-1.19121e-18
-7.76807e-19
-9.29416e-19
-1.09257e-18
-1.17322e-18
-1.1791e-18
-1.32435e-18
-1.26233e-18
-1.50379e-18
-1.55327e-18
-1.15645e-18
-9.29637e-19
-1.31779e-18
-1.04096e-18
-1.11771e-18
-1.03219e-18
-1.06467e-18
-1.39657e-18
-1.16191e-18
-1.38979e-18
-1.44366e-18
-1.40521e-18
-1.20417e-18
-1.27971e-18
-1.8837e-18
-1.76796e-18
-1.0428e-18
-1.13011e-18
-1.50488e-18
-9.92207e-19
-1.68379e-18
-1.27526e-18
-1.75297e-18
-1.57986e-18
-1.17595e-18
-1.18462e-18
-1.44507e-18
-9.84555e-19
-1.29512e-18
-1.01052e-18
-1.08551e-18
-1.51598e-18
-8.51971e-19
-1.1013e-18
-1.17078e-18
-1.18857e-18
-1.11976e-18
-1.51522e-18
-9.64887e-19
-1.4569e-18
-1.60679e-18
-1.50863e-18
-1.57607e-18
-1.20671e-18
-1.34731e-18
-1.4223e-18
-1.37258e-18
-9.81561e-19
-1.26126e-18
-1.1555e-18
-1.25547e-18
-1.07261e-18
-1.098e-18
-1.02721e-18
-1.72242e-18
-1.04378e-18
-1.19406e-18
-1.02846e-18
-1.14018e-18
-1.25551e-18
-1.6087e-18
-1.22504e-18
-1.23881e-18
-1.64424e-18
-1.41238e-18
-1.06962e-18
-1.09788e-18
-1.09933e-18
-8.24946e-19
-1.55943e-18
-9.02152e-19
-1.29974e-18
-9.81728e-19
-1.12603e-18
-1.43006e-18
-1.09848e-18
-1.33736e-18
-1.30286e-18
-1.41615e-18
-1.20638e-18
-1.25351e-18
-9.55576e-19
-1.36937e-18
-1.42285e-18
-1.18632e-18
-9.95724e-19
-9.08667e-19
-1.25053e-18
-1.23059e-18
-1.32006e-18
-9.61982e-19
-1.92029e-18
-9.4199e-19
-1.41796e-18
-1.25216e-18
-1.37621e-18
-1.00719e-18
-1.42896e-18
-9.30983e-19
-1.08803e-18
-1.15885e-18
-1.36151e-18
-1.04792e-18
-1.33797e-18
-1.60378e-18
-1.21447e-18
-1.11848e-18
-1.05577e-18
-1.57699e-18
-1.28458e-18
-1.56154e-18
-1.90171e-18
-1.76344e-18
-1.74606e-18
-9.36601e-19
-1.25896e-18
-1.21677e-18
-1.05745e-18
-1.36059e-18
-1.01218e-18
-8.73346e-19
-1.1481e-18
-1.12815e-18
-1.20184e-18
-1.431e-18
-1.12427e-18
-1.19382e-18
-8.59864e-19
-1.4139e-18
-1.46846e-18
-8.45268e-19
-1.1432e-18
-1.1164e-18
-1.35411e-18
-1.27041e-18
-1.59361e-18
-1.09841e-18
-1.44959e-18
-1.44037e-18
-1.63534e-18
-9.89179e-19
-1.55674e-18
-1.2995e-18
-1.62055e-18
-1.06571e-18
-1.01805e-18
-1.32525e-18
-1.09184e-18
-1.39627e-18
-1.27002e-18
-1.89639e-18
-1.55637e-18
-1.15905e-18
-1.37318e-18
-1.25838e-18
-1.67469e-18
-1.08929e-18
-1.06609e-18
-1.1803e-18
-1.335e-18
-1.75041e-18
-2.05845e-18
-1.48911e-18
-1.60684e-18
-1.13092e-18
-9.72132e-19
-1.41367e-18
-9.4077e-19
-1.30102e-18
-1.02432e-18
-1.07829e-18
-1.35321e-18
-1.13436e-18
-1.18448e-18
-1.17401e-18
-1.60457e-18
-1.21425e-18
-1.07381e-18
-1.34226e-18
-1.34692e-18
-1.04636e-18
-9.9121e-19
-1.25865e-18
-1.31844e-18
-1.45294e-18
-1.35252e-18
-1.1136e-18
-9.63044e-19
-3.62571e-18
-2.00526e-18
-2.03186e-18
-1.89623e-18
-2.26135e-18
-1.733e-18
-2.21419e-18
-1.55926e-18
-3.06387e-18
-1.51915e-18
-2.38353e-18
-2.04987e-18
-1.83021e-18
-2.23364e-18
-2.00278e-18
-2.48229e-18
-2.22358e-18
-3.4009e-18
-2.29676e-18
-3.17654e-18
-2.524e-18
-2.00044e-18
-1.9358e-18
-2.10328e-18
-2.41839e-18
-2.47994e-18
-2.6982e-18
-2.14993e-18
-2.14195e-18
-2.19888e-18
-2.64644e-18
-2.79119e-18
-2.55288e-18
-1.73831e-18
-2.1137e-18
-1.72532e-18
-2.60612e-18
-2.7926e-18
-2.67816e-18
-2.24917e-18
-2.55679e-18
-2.40473e-18
-2.58603e-18
-2.03667e-18
-1.79538e-18
-2.76353e-18
-3.13336e-18
-2.54895e-18
-2.79393e-18
-2.51752e-18
-3.2965e-18
-2.68388e-18
-2.2992e-18
-2.4023e-18
-1.64524e-18
-2.16145e-18
-2.13093e-18
-2.63024e-18
-2.23797e-18
-2.08948e-18
-2.192e-18
-2.19952e-18
-3.01278e-18
-2.92748e-18
-1.64754e-18
-2.2679e-18
-2.20118e-18
-2.36988e-18
-2.2919e-18
-1.43636e-18
-1.71779e-18
-2.25918e-18
-3.01573e-18
-2.75983e-18
-1.93039e-18
-2.18967e-18
-2.12761e-18
-2.05855e-18
-1.77571e-18
-2.14737e-18
-2.21161e-18
-2.20977e-18
-1.94106e-18
-1.87817e-18
-2.66887e-18
-2.51359e-18
-2.0278e-18
-3.02226e-18
-3.00291e-18
-2.9159e-18
-2.38904e-18
-1.53682e-18
-3.22373e-18
-2.11477e-18
-2.54201e-18
-1.65777e-18
-2.47125e-18
-2.21957e-18
-2.29598e-18
-2.50723e-18
-2.54504e-18
-2.50994e-18
-2.45573e-18
-2.90703e-18
-1.96926e-18
-2.50229e-18
-2.31196e-18
-2.54666e-18
-2.69892e-18
-2.15599e-18
-2.30233e-18
-2.36702e-18
-1.93717e-18
-2.32796e-18
-1.8904e-18
-2.67996e-18
-3.15669e-18
-2.25731e-18
-1.99211e-18
-2.17047e-18
-2.6655e-18
-1.9755e-18
-2.57166e-18
-2.62751e-18
-2.52195e-18
-2.75772e-18
-2.7373e-18
-2.41527e-18
-2.30649e-18
-2.20598e-18
-2.34951e-18
-2.6639e-18
-2.86444e-18
-2.33702e-18
-2.22889e-18
-2.35595e-18
-1.97031e-18
-2.78572e-18
-2.07859e-18
-1.86856e-18
-2.0626e-18
-2.45735e-18
-2.91769e-18
-2.48635e-18
-2.48479e-18
-1.9792e-18
-1.63147e-18
-2.3643e-18
-1.43095e-18
-2.05719e-18
-2.63385e-18
-2.13588e-18
-2.19964e-18
-2.12069e-18
-1.62822e-18
-1.21173e-18
-2.28752e-18
-2.19811e-18
-1.85332e-18
-2.14519e-18
-2.42095e-18
-2.32483e-18
-2.42504e-18
-2.17966e-18
-1.89178e-18
-1.74223e-18
-1.99172e-18
-2.17768e-18
-2.41652e-18
-2.00005e-18
-2.99494e-18
-1.79313e-18
-2.11964e-18
-2.61949e-18
-2.46974e-18
-2.45067e-18
-3.00996e-18
-2.81845e-18
-2.38624e-18
-2.20956e-18
-2.81441e-18
-2.0742e-18
-2.55199e-18
-2.32249e-18
-2.58715e-18
-2.00677e-18
-2.65602e-18
-2.07515e-18
-2.04276e-18
-2.35616e-18
-2.12837e-18
-2.44555e-18
-2.19204e-18
-1.74273e-18
-2.31207e-18
-2.41297e-18
-3.53262e-18
-2.59034e-18
-2.00275e-18
-2.29932e-18
-2.26442e-18
-2.04731e-18
-1.9664e-18
-2.68531e-18
-2.50252e-18
-1.85971e-18
-2.04475e-18
-2.45258e-18
-2.95118e-18
-3.00167e-18
-2.95552e-18
-2.86387e-18
-2.98093e-18
-3.00693e-18
-3.16959e-18
-1.87934e-18
-2.48313e-18
-2.22054e-18
-2.75284e-18
-2.4769e-18
-2.05996e-18
-1.94878e-18
-2.23937e-18
-2.78417e-18
-2.58564e-18
-1.76857e-18
-1.942e-18
-2.45324e-18
-2.19343e-18
-2.80512e-18
-2.26518e-18
-2.0266e-18
-2.81751e-18
-1.93042e-18
-2.6846e-18
-1.89592e-18
-2.63114e-18
-1.88569e-18
-3.21368e-18
-2.16251e-18
-2.02929e-18
-2.63971e-18
-2.17499e-18
-2.51836e-18
-2.23262e-18
-3.16247e-18
-1.9642e-18
-1.70182e-18
-2.09591e-18
-2.29236e-18
-1.86975e-18
-2.51509e-18
-1.82415e-18
-2.80207e-18
-2.10493e-18
-3.10839e-18
-7.81755e-18
-4.83834e-18
-5.05026e-18
-4.50265e-18
-4.94427e-18
-5.51484e-18
-3.9882e-18
-3.55402e-18
-3.91668e-18
-4.49274e-18
-3.62999e-18
-4.63263e-18
-6.11831e-18
-6.76978e-18
-4.62505e-18
-4.85376e-18
-4.18109e-18
-4.16574e-18
-4.74451e-18
-3.83951e-18
-4.634e-18
-4.82089e-18
-3.43529e-18
-4.7987e-18
-3.68367e-18
-5.23554e-18
-5.97872e-18
-5.93899e-18
-3.71477e-18
-4.30903e-18
-4.81764e-18
-2.39536e-18
-3.50976e-18
-4.59979e-18
-4.72611e-18
-4.50141e-18
-6.78171e-18
-4.35549e-18
-4.59593e-18
-4.41374e-18
-4.36465e-18
-4.21738e-18
-3.78558e-18
-3.37708e-18
-4.60251e-18
-5.30879e-18
-4.43722e-18
-4.92021e-18
-4.63913e-18
-4.5119e-18
-3.3232e-18
-4.26239e-18
-3.42095e-18
-3.39078e-18
-2.99705e-18
-4.153e-18
-3.11339e-18
-3.92067e-18
-6.25253e-18
-4.41845e-18
-3.4554e-18
-5.22153e-18
-4.14683e-18
-4.81644e-18
-4.08341e-18
-3.43133e-18
-3.40814e-18
-4.83754e-18
-5.02965e-18
-3.73236e-18
-4.21672e-18
-5.03933e-18
-3.45242e-18
-2.88841e-18
-3.64992e-18
-4.40448e-18
-4.04861e-18
-3.28623e-18
-4.71509e-18
-3.56674e-18
-3.86882e-18
-4.06275e-18
-4.12281e-18
-4.70848e-18
-3.58752e-18
-3.89568e-18
-5.57662e-18
-4.2804e-18
-4.39772e-18
-4.49713e-18
-3.83723e-18
-4.18086e-18
-4.66382e-18
-3.30856e-18
-4.45044e-18
-3.16392e-18
-3.96794e-18
-4.96692e-18
-4.4185e-18
-4.33908e-18
-5.13187e-18
-4.24817e-18
-3.82205e-18
-4.33537e-18
-5.28041e-18
-3.25305e-18
-4.91536e-18
-3.7883e-18
-5.46292e-18
-4.75292e-18
-4.30514e-18
-4.4416e-18
-4.63702e-18
-3.95951e-18
-5.22226e-18
-4.39789e-18
-5.21187e-18
-5.01827e-18
-6.32927e-18
-4.44118e-18
-2.91281e-18
-2.60148e-18
-4.56183e-18
-3.77392e-18
-4.92809e-18
-4.70144e-18
-5.07228e-18
-6.80247e-18
-5.30536e-18
-4.96072e-18
-5.39781e-18
-4.56074e-18
-5.30373e-18
-3.71487e-18
-4.68156e-18
-2.6665e-18
-3.5229e-18
-3.48593e-18
-4.73326e-18
-3.6267e-18
-4.21743e-18
-4.46865e-18
-4.15843e-18
-4.55255e-18
-3.76208e-18
-5.65774e-18
-4.30063e-18
-3.00209e-18
-3.91411e-18
-5.46337e-18
-4.94114e-18
-4.44567e-18
-4.37989e-18
-4.99518e-18
-3.73293e-18
-3.42849e-18
-4.99466e-18
-2.98067e-18
-4.91317e-18
-3.64757e-18
-4.64875e-18
-3.40614e-18
-5.56736e-18
-4.99113e-18
-4.40748e-18
-4.92344e-18
-4.71963e-18
-3.56356e-18
-7.24633e-18
-4.71928e-18
-5.72308e-18
-3.9295e-18
-4.39972e-18
-4.18044e-18
-3.3513e-18
-3.92975e-18
-5.30175e-18
-4.88835e-18
-3.36339e-18
-5.27128e-18
-5.82501e-18
-4.1629e-18
-4.81748e-18
-4.03809e-18
-4.02841e-18
-5.05016e-18
-3.54075e-18
-3.42154e-18
-3.42521e-18
-3.74895e-18
-4.35592e-18
-3.43935e-18
-4.00131e-18
-5.12005e-18
-4.3323e-18
-4.79218e-18
-4.68329e-18
-5.31885e-18
-4.03646e-18
-3.85695e-18
-4.96839e-18
-2.86837e-18
-4.73237e-18
-3.33975e-18
-3.28219e-18
-4.16622e-18
-2.75178e-18
-4.47353e-18
-2.90442e-18
-5.953e-18
-3.42972e-18
-5.39418e-18
-4.40388e-18
-4.54993e-18
-3.6108e-18
-3.66476e-18
-4.40386e-18
-4.41571e-18
-4.95708e-18
-3.87653e-18
-2.94623e-18
-3.70179e-18
-4.00288e-18
-3.92046e-18
-4.8754e-18
-3.23795e-18
-3.51667e-18
-3.89311e-18
-3.06328e-18
-3.92742e-18
-3.45835e-18
-3.95062e-18
-5.59408e-18
-3.79786e-18
-3.43296e-18
-3.83213e-18
-5.22313e-18
-4.20732e-18
-5.12406e-18
-4.27225e-18
-3.73291e-18
-5.08719e-18
-5.19705e-18
-3.64017e-18
-4.22751e-18
-5.32893e-18
-3.0732e-18
-3.67749e-18
-4.09267e-18
-2.70572e-18
-2.92805e-18
-5.17156e-18
-3.42301e-18
-4.42528e-18
-4.29728e-18
-5.09557e-18
-1.14451e-17
-7.37543e-18
-7.23479e-18
-9.4633e-18
-7.84063e-18
-8.40301e-18
-7.30692e-18
-8.32511e-18
-9.22797e-18
-9.22649e-18
-5.66034e-18
-9.9761e-18
-8.80717e-18
-1.0059e-17
-9.04607e-18
-7.21765e-18
-8.23149e-18
-1.01183e-17
-1.33963e-17
-9.27148e-18
-8.89993e-18
-7.4018e-18
-9.17216e-18
-9.38574e-18
-1.2611e-17
-7.5388e-18
-7.43429e-18
-9.43647e-18
-6.86439e-18
-7.85516e-18
-9.51285e-18
-5.61411e-18
-7.26772e-18
-9.27368e-18
-6.99467e-18
-5.08854e-18
-7.11801e-18
-8.29066e-18
-6.08755e-18
-8.38475e-18
-1.03617e-17
-9.28556e-18
-1.08203e-17
-7.20077e-18
-1.14622e-17
-9.11867e-18
-7.94178e-18
-7.82647e-18
-6.95671e-18
-8.38921e-18
-8.12955e-18
-8.28598e-18
-8.55659e-18
-6.50291e-18
-6.31195e-18
-6.92193e-18
-7.79911e-18
-8.70008e-18
-6.33881e-18
-8.86249e-18
-6.90859e-18
-6.3238e-18
-8.51904e-18
-8.81851e-18
-7.62284e-18
-7.71125e-18
-1.0246e-17
-6.33004e-18
-7.23629e-18
-8.10801e-18
-7.14999e-18
-6.65932e-18
-7.62156e-18
-5.91602e-18
-8.61859e-18
-7.26788e-18
-7.62881e-18
-7.29073e-18
-8.15045e-18
-6.99355e-18
-7.03252e-18
-7.0123e-18
-6.89795e-18
-8.79414e-18
-7.59909e-18
-9.54789e-18
-9.05844e-18
-6.87153e-18
-8.09292e-18
-8.95754e-18
-9.51793e-18
-8.53287e-18
-6.73828e-18
-7.53399e-18
-1.11219e-17
-8.62431e-18
-6.23613e-18
-9.7832e-18
-8.33604e-18
-9.50411e-18
-6.62632e-18
-7.83342e-18
-6.14982e-18
-6.17376e-18
-1.00674e-17
-1.20636e-17
-1.06313e-17
-7.37307e-18
-6.96686e-18
-7.99147e-18
-1.18166e-17
-7.78891e-18
-9.98384e-18
-1.0294e-17
-8.77847e-18
-7.63877e-18
-8.26922e-18
-6.71686e-18
-5.29018e-18
-9.60059e-18
-8.30885e-18
-8.2556e-18
-6.84332e-18
-5.3717e-18
-7.6022e-18
-6.89531e-18
-9.39193e-18
-7.35618e-18
-7.29762e-18
-8.69439e-18
-8.89572e-18
-9.62134e-18
-8.06652e-18
-9.15844e-18
-7.91067e-18
-7.3633e-18
-6.57768e-18
-6.38693e-18
-6.93175e-18
-8.75139e-18
-1.13903e-17
-9.87136e-18
-1.00956e-17
-6.73368e-18
-9.04426e-18
-1.14194e-17
-9.77992e-18
-7.36465e-18
-9.55823e-18
-9.61095e-18
-8.04666e-18
-8.00005e-18
-8.49663e-18
-6.71931e-18
-9.74852e-18
-6.21113e-18
-6.52653e-18
-5.1753e-18
-8.58248e-18
-1.13077e-17
-5.86121e-18
-8.57209e-18
-8.2395e-18
-1.06499e-17
-8.38523e-18
-9.74565e-18
-1.13132e-17
-8.06515e-18
-8.24901e-18
-9.17848e-18
-8.89365e-18
-7.94496e-18
-7.34883e-18
-5.71487e-18
-7.67523e-18
-1.19973e-17
-6.88138e-18
-5.75408e-18
-8.36161e-18
-1.01093e-17
-1.02247e-17
-7.24019e-18
-7.51941e-18
-8.73191e-18
-1.00648e-17
-1.06067e-17
-7.43454e-18
-7.45171e-18
-6.36743e-18
-9.69011e-18
-7.87094e-18
-5.7956e-18
-7.72352e-18
-9.28198e-18
-5.63212e-18
-9.62757e-18
-6.63383e-18
-8.26671e-18
-6.77216e-18
-6.65566e-18
-7.44685e-18
-8.61452e-18
-8.76805e-18
-8.25072e-18
-5.84497e-18
-8.54593e-18
-1.06538e-17
-8.83773e-18
-8.98898e-18
-8.27704e-18
-7.84991e-18
-1.03485e-17
-8.45676e-18
-1.01802e-17
-6.16451e-18
-8.84432e-18
-8.21063e-18
-6.71321e-18
-8.23023e-18
-9.1929e-18
-8.58687e-18
-9.18975e-18
-7.71928e-18
-7.71525e-18
-8.08852e-18
-5.33834e-18
-5.90847e-18
-9.0086e-18
-8.35158e-18
-1.02755e-17
-6.83876e-18
-8.3839e-18
-8.11678e-18
-8.26757e-18
-1.02565e-17
-8.14519e-18
-5.88031e-18
-7.35099e-18
-6.26746e-18
-5.65057e-18
-7.01458e-18
-7.73621e-18
-5.6791e-18
-8.05451e-18
-1.01378e-17
-6.24868e-18
-5.72454e-18
-7.48757e-18
-9.18482e-18
-1.06586e-17
-8.89093e-18
-8.12855e-18
-9.13751e-18
-7.89024e-18
-8.064e-18
-8.69844e-18
-1.68134e-17
-1.20477e-17
-1.40701e-17
-1.35771e-17
-1.41231e-17
-1.75459e-17
-1.63442e-17
-1.20842e-17
-2.07644e-17
-1.81368e-17
-1.51477e-17
-1.41272e-17
-1.96548e-17
-1.41619e-17
-1.33988e-17
-1.15022e-17
-1.46826e-17
-1.76736e-17
-1.94324e-17
-1.49439e-17
-1.58374e-17
-1.79234e-17
-1.22959e-17
-1.78479e-17
-1.35348e-17
-1.56596e-17
-1.94449e-17
-1.88752e-17
-1.33278e-17
-1.54325e-17
-1.81544e-17
-1.32206e-17
-1.6804e-17
-1.9213e-17
-1.55337e-17
-1.21117e-17
-1.56948e-17
-1.60803e-17
-1.35669e-17
-1.48252e-17
-1.27762e-17
-2.01722e-17
-1.4014e-17
-1.31649e-17
-1.17467e-17
-1.48367e-17
-1.70201e-17
-1.45151e-17
-1.30483e-17
-1.09654e-17
-1.15742e-17
-1.80311e-17
-1.29314e-17
-1.28426e-17
-1.57018e-17
-1.44347e-17
-9.03257e-18
-1.17852e-17
-1.66785e-17
-1.41422e-17
-1.39335e-17
-1.18787e-17
-1.22772e-17
-1.83153e-17
-1.62049e-17
-1.73108e-17
-1.58401e-17
-1.0224e-17
-1.20402e-17
-1.4271e-17
-1.08321e-17
-1.29855e-17
-1.2381e-17
-1.02927e-17
-9.7267e-18
-1.21626e-17
-1.28875e-17
-1.85651e-17
-1.60932e-17
-1.25486e-17
-1.43109e-17
-1.54201e-17
-1.04565e-17
-1.77993e-17
-1.19816e-17
-1.39606e-17
-1.38938e-17
-2.01107e-17
-2.01507e-17
-1.81455e-17
-1.55528e-17
-1.82575e-17
-1.65655e-17
-1.25248e-17
-1.30113e-17
-2.05664e-17
-1.68051e-17
-1.54694e-17
-1.50952e-17
-1.63072e-17
-1.68684e-17
-1.41624e-17
-1.29641e-17
-1.36576e-17
-1.55157e-17
-1.48713e-17
-9.56762e-18
-1.64671e-17
-1.52698e-17
-1.80301e-17
-1.14589e-17
-1.3827e-17
-1.79734e-17
-1.78756e-17
-1.32683e-17
-1.77562e-17
-1.72075e-17
-1.13279e-17
-1.43077e-17
-1.65495e-17
-1.24446e-17
-1.04012e-17
-1.88405e-17
-1.85144e-17
-1.11759e-17
-1.34464e-17
-1.60526e-17
-1.7989e-17
-9.84597e-18
-1.17754e-17
-1.52059e-17
-1.37386e-17
-1.46177e-17
-1.51051e-17
-1.06705e-17
-1.09872e-17
-1.8652e-17
-1.2935e-17
-1.72055e-17
-1.42883e-17
-1.63156e-17
-2.0292e-17
-1.49016e-17
-1.45836e-17
-1.5738e-17
-1.45086e-17
-1.56784e-17
-1.21186e-17
-1.41299e-17
-1.24711e-17
-1.3492e-17
-1.68613e-17
-1.30279e-17
-1.71597e-17
-1.13595e-17
-1.31763e-17
-1.26736e-17
-9.47698e-18
-1.54649e-17
-2.29276e-17
-1.48651e-17
-1.42342e-17
-1.27696e-17
-1.54142e-17
-1.35552e-17
-1.27593e-17
-1.78419e-17
-1.45506e-17
-1.69051e-17
-1.82758e-17
-1.25699e-17
-1.77544e-17
-1.17609e-17
-1.762e-17
-1.95884e-17
-1.55789e-17
-1.8927e-17
-1.6985e-17
-1.74662e-17
-1.50657e-17
-1.74575e-17
-1.48533e-17
-1.53311e-17
-1.88035e-17
-1.75093e-17
-1.75581e-17
-1.74837e-17
-1.21239e-17
-1.82288e-17
-1.31873e-17
-1.08991e-17
-1.60783e-17
-1.69071e-17
-1.7755e-17
-1.44051e-17
-1.48824e-17
-1.59636e-17
-1.62435e-17
-1.03005e-17
-1.54615e-17
-9.59079e-18
-1.12023e-17
-1.1969e-17
-1.1198e-17
-1.07529e-17
-1.20269e-17
-2.1009e-17
-1.65593e-17
-1.40165e-17
-1.81648e-17
-1.28194e-17
-1.15285e-17
-9.74325e-18
-1.41577e-17
-1.4748e-17
-1.4084e-17
-1.58599e-17
-1.89308e-17
-1.5616e-17
-1.39681e-17
-1.67375e-17
-1.79651e-17
-2.11163e-17
-1.18754e-17
-1.682e-17
-1.53995e-17
-1.46696e-17
-1.47806e-17
-1.14936e-17
-1.63988e-17
-1.24641e-17
-1.25332e-17
-1.14417e-17
-1.93695e-17
-1.60557e-17
-1.42074e-17
-1.14922e-17
-1.31528e-17
-1.57705e-17
-1.88008e-17
-1.76329e-17
-1.53395e-17
-1.73426e-17
-9.75992e-18
-1.52038e-17
-1.61398e-17
-1.51307e-17
-1.67046e-17
-1.25554e-17
-1.76672e-17
-1.60615e-17
-1.64406e-17
-1.72568e-17
-1.16831e-17
-1.03414e-17
-1.46937e-17
-3.86774e-17
-2.64721e-17
-2.9472e-17
-3.12203e-17
-2.04534e-17
-2.76543e-17