# vtk DataFile Version 1.0
Electron Density - Current Sheet 
ASCII
DATASET STRUCTURED_POINTS
DIMENSIONS 256 128 1
ORIGIN 0 0 0
SPACING 0.15625 0.15625 1
POINT_DATA 32768
SCALARS rhoe float
LOOKUP_TABLE default
-1.25123e-19
-1.4481e-19
-1.90293e-19
-1.32062e-19
-1.88223e-19
-1.34931e-19
-1.61612e-19
-2.49654e-19
-2.17212e-19
-2.1389e-19
-1.45424e-19
-1.43258e-19
-1.24238e-19
-1.62839e-19
-1.30067e-19
-1.6166e-19
-1.90127e-19
-1.87547e-19
-1.61111e-19
-2.07211e-19
-1.95069e-19
-2.21926e-19
-1.79568e-19
-1.37121e-19
-1.79725e-19
-1.55802e-19
-1.61343e-19
-1.28416e-19
-1.64963e-19
-1.41875e-19
-2.52827e-19
-1.7381e-19
-1.69811e-19
-2.0101e-19
-2.3311e-19
-1.85875e-19
-1.32187e-19
-2.05651e-19
-1.6038e-19
-1.53293e-19
-1.77882e-19
-1.9269e-19
-1.79448e-19
-1.50783e-19
-1.15182e-19
-1.87274e-19
-2.25604e-19
-1.86591e-19
-2.76662e-19
-2.08933e-19
-1.23338e-19
-1.58472e-19
-1.89148e-19
-1.94401e-19
-2.18686e-19
-2.60966e-19
-1.99146e-19
-1.23749e-19
-1.48909e-19
-1.949e-19
-1.46054e-19
-1.79934e-19
-1.68448e-19
-1.63039e-19
-2.40357e-19
-1.15669e-19
-1.79135e-19
-1.81417e-19
-1.16493e-19
-1.39084e-19
-1.31516e-19
-1.79215e-19
-1.19662e-19
-1.616e-19
-1.92313e-19
-2.37283e-19
-2.04479e-19
-1.54982e-19
-1.56034e-19
-1.47785e-19
-1.70088e-19
-1.8122e-19
-1.58032e-19
-1.49005e-19
-2.77929e-19
-1.59722e-19
-1.64226e-19
-1.61374e-19
-1.66048e-19
-1.76005e-19
-2.16653e-19
-1.73504e-19
-1.26809e-19
-1.14844e-19
-1.8903e-19
-1.26345e-19
-1.47817e-19
-2.21407e-19
-2.01411e-19
-1.5105e-19
-1.85041e-19
-2.02713e-19
-2.24083e-19
-1.97903e-19
-1.75881e-19
-1.95509e-19
-1.85438e-19
-1.62205e-19
-1.71299e-19
-1.64544e-19
-1.30274e-19
-1.50123e-19
-1.84468e-19
-1.48487e-19
-1.52958e-19
-1.2043e-19
-1.79498e-19
-2.17921e-19
-1.56139e-19
-2.12679e-19
-2.53587e-19
-1.07127e-19
-2.07238e-19
-2.07797e-19
-1.96352e-19
-2.05945e-19
-2.23758e-19
-2.27663e-19
-1.85875e-19
-2.35534e-19
-1.46727e-19
-2.03865e-19
-2.01527e-19
-2.8718e-19
-2.49643e-19
-1.65471e-19
-2.12698e-19
-2.18204e-19
-2.02563e-19
-1.44423e-19
-1.46356e-19
-2.19973e-19
-1.65598e-19
-1.74091e-19
-1.8156e-19
-1.58693e-19
-1.83387e-19
-1.71966e-19
-1.54083e-19
-1.70502e-19
-1.86955e-19
-1.75307e-19
-1.94503e-19
-2.357e-19
-1.88084e-19
-1.75391e-19
-1.88064e-19
-1.89331e-19
-1.00531e-19
-1.27266e-19
-1.0692e-19
-1.66319e-19
-1.93144e-19
-1.79088e-19
-2.22576e-19
-2.40354e-19
-2.19956e-19
-2.44488e-19
-1.39956e-19
-1.89774e-19
-2.56551e-19
-1.81355e-19
-2.56143e-19
-1.88744e-19
-3.02845e-19
-2.20837e-19
-1.6264e-19
-1.21993e-19
-1.75307e-19
-1.3623e-19
-2.49468e-19
-1.54204e-19
-7.17541e-20
-1.37926e-19
-1.62704e-19
-1.39664e-19
-1.82171e-19
-1.72878e-19
-1.85221e-19
-2.09483e-19
-1.45216e-19
-1.6141e-19
-1.12171e-19
-1.30179e-19
-1.91736e-19
-1.65446e-19
-1.8465e-19
-1.60046e-19
-1.77869e-19
-1.7167e-19
-1.80773e-19
-1.02572e-19
-1.80022e-19
-1.34272e-19
-1.3785e-19
-2.15181e-19
-1.40096e-19
-1.62221e-19
-1.98289e-19
-1.89662e-19
-2.11907e-19
-1.69489e-19
-1.53548e-19
-2.03068e-19
-2.715e-19
-1.75473e-19
-1.61992e-19
-9.78747e-20
-1.25606e-19
-1.56718e-19
-1.68695e-19
-2.07707e-19
-2.95724e-19
-2.03694e-19
-2.22833e-19
-1.68892e-19
-1.4145e-19
-1.68067e-19
-2.40538e-19
-2.45957e-19
-2.64133e-19
-1.89132e-19
-1.69018e-19
-1.70797e-19
-1.68734e-19
-1.53129e-19
-1.78473e-19
-7.49253e-20
-1.20124e-19
-1.46432e-19
-1.93477e-19
-1.67319e-19
-2.28352e-19
-2.29399e-19
-1.59896e-19
-1.62181e-19
-2.03746e-19
-1.30502e-19
-1.71643e-19
-1.64458e-19
-1.9635e-19
-2.64814e-19
-1.94229e-19
-1.11948e-19
-1.69169e-19
-1.75532e-19
-2.34287e-19
-2.23752e-19
-2.25208e-19
-2.37065e-19
-1.96961e-19
-2.07986e-19
-1.84027e-19
-2.56219e-19
-1.95853e-19
-1.51359e-19
-1.65853e-19
-2.4749e-19
-2.77405e-19
-2.27956e-19
-2.41274e-19
-1.50134e-19
-2.16463e-19
-1.93913e-19
-1.71471e-19
-1.97766e-19
-2.39226e-19
-2.20233e-19
-1.69576e-19
-1.6705e-19
-2.72077e-19
-2.24566e-19
-2.56796e-19
-2.11557e-19
-1.46198e-19
-2.29023e-19
-2.5758e-19
-1.85231e-19
-2.09475e-19
-2.45294e-19
-2.15371e-19
-2.69022e-19
-2.62588e-19
-2.15961e-19
-2.1468e-19
-1.86945e-19
-2.6981e-19
-2.15346e-19
-2.30632e-19
-2.84514e-19
-2.30521e-19
-2.59831e-19
-1.99667e-19
-2.35785e-19
-1.81273e-19
-2.58023e-19
-1.90632e-19
-1.99066e-19
-2.16437e-19
-1.56165e-19
-2.29043e-19
-1.57433e-19
-2.0845e-19
-2.44916e-19
-2.18369e-19
-1.88355e-19
-2.2799e-19
-2.50538e-19
-1.77695e-19
-1.7704e-19
-1.96548e-19
-2.10241e-19
-2.42695e-19
-2.01833e-19
-1.67679e-19
-2.43329e-19
-1.83793e-19
-2.03383e-19
-2.12243e-19
-2.04175e-19
-1.76117e-19
-1.53424e-19
-2.0661e-19
-1.65196e-19
-2.29962e-19
-2.69636e-19
-2.37452e-19
-1.98928e-19
-1.80993e-19
-1.83291e-19
-2.1147e-19
-2.38454e-19
-2.62962e-19
-2.20166e-19
-2.47635e-19
-1.3689e-19
-2.19743e-19
-2.31731e-19
-1.97468e-19
-1.57243e-19
-2.40138e-19
-2.18492e-19
-2.1492e-19
-2.47624e-19
-2.03195e-19
-2.87033e-19
-2.19316e-19
-2.26074e-19
-1.49631e-19
-1.70879e-19
-1.85135e-19
-2.29185e-19
-1.76928e-19
-2.42509e-19
-2.37413e-19
-2.20074e-19
-1.96772e-19
-2.24445e-19
-1.27462e-19
-2.05906e-19
-1.57426e-19
-2.66856e-19
-2.19365e-19
-1.90342e-19
-2.0627e-19
-1.98999e-19
-2.21183e-19
-2.47982e-19
-2.37118e-19
-1.80786e-19
-2.63131e-19
-2.34582e-19
-3.19676e-19
-2.06337e-19
-2.79201e-19
-1.47868e-19
-2.85207e-19
-2.16614e-19
-2.31689e-19
-2.12856e-19
-1.74169e-19
-1.79474e-19
-2.41453e-19
-2.40316e-19
-2.52568e-19
-2.05092e-19
-1.53741e-19
-2.04829e-19
-1.72124e-19
-2.3137e-19
-2.16057e-19
-2.14084e-19
-2.67354e-19
-2.60088e-19
-1.99097e-19
-1.87516e-19
-2.19582e-19
-1.83417e-19
-2.66806e-19
-2.2515e-19
-1.83661e-19
-1.59312e-19
-1.56985e-19
-1.65387e-19
-1.86776e-19
-1.42722e-19
-1.77654e-19
-1.91663e-19
-2.55793e-19
-1.80755e-19
-2.35211e-19
-2.08549e-19
-1.89321e-19
-1.53927e-19
-1.22836e-19
-1.79244e-19
-2.6981e-19
-2.58398e-19
-1.77122e-19
-2.69185e-19
-2.46599e-19
-1.39513e-19
-1.90937e-19
-1.43991e-19
-3.29639e-19
-1.9413e-19
-2.52341e-19
-1.78742e-19
-1.79078e-19
-2.20892e-19
-1.38671e-19
-1.78784e-19
-1.64026e-19
-2.51329e-19
-1.40635e-19
-2.40649e-19
-1.93455e-19
-2.16308e-19
-2.40982e-19
-2.15261e-19
-2.55322e-19
-2.3546e-19
-2.34414e-19
-2.2796e-19
-2.0964e-19
-2.89876e-19
-2.00609e-19
-2.05325e-19
-2.61415e-19
-2.35201e-19
-1.71474e-19
-1.91958e-19
-2.61012e-19
-2.72215e-19
-2.34408e-19
-2.50015e-19
-2.61806e-19
-1.82264e-19
-2.29695e-19
-2.47811e-19
-1.57652e-19
-2.56706e-19
-2.43618e-19
-1.23556e-19
-2.10165e-19
-2.33579e-19
-2.65412e-19
-2.65742e-19
-2.8879e-19
-1.98118e-19
-2.11923e-19
-1.58065e-19
-1.87761e-19
-1.6914e-19
-2.01352e-19
-3.37816e-19
-2.10341e-19
-2.80344e-19
-1.81905e-19
-1.69259e-19
-2.37293e-19
-1.72345e-19
-1.89042e-19
-1.97975e-19
-1.54616e-19
-1.51099e-19
-1.95528e-19
-2.35239e-19
-1.94702e-19
-1.57545e-19
-1.59034e-19
-2.12109e-19
-2.1575e-19
-1.51446e-19
-2.14321e-19
-2.94001e-19
-1.87966e-19
-2.70566e-19
-2.08242e-19
-2.68028e-19
-2.52066e-19
-2.30004e-19
-4.34543e-19
-3.44565e-19
-4.45524e-19
-3.05296e-19
-3.57496e-19
-3.56785e-19
-4.65269e-19
-4.65514e-19
-3.18539e-19
-4.76746e-19
-5.64826e-19
-4.06968e-19
-4.817e-19
-4.12455e-19
-2.86867e-19
-2.21948e-19
-2.86168e-19
-3.10197e-19
-2.62401e-19
-4.4968e-19
-3.64939e-19
-3.81895e-19
-4.09693e-19
-3.21795e-19
-3.62303e-19
-4.73033e-19
-2.86336e-19
-4.42547e-19
-2.8147e-19
-2.72189e-19
-4.78026e-19
-4.30067e-19
-3.34488e-19
-3.18831e-19
-4.2465e-19
-3.01599e-19
-4.87717e-19
-3.21857e-19
-4.62783e-19
-4.62858e-19
-3.63591e-19
-3.95058e-19
-3.4446e-19
-2.53052e-19
-4.30604e-19
-4.0558e-19
-4.38561e-19
-5.66581e-19
-4.37058e-19
-4.38322e-19
-4.49089e-19
-5.18532e-19
-3.16914e-19
-3.83897e-19
-3.50114e-19
-3.16426e-19
-3.69658e-19
-4.41524e-19
-3.92231e-19
-3.978e-19
-3.30644e-19
-3.70171e-19
-3.46033e-19
-4.48026e-19
-3.7361e-19
-3.08463e-19
-3.91782e-19
-3.46046e-19
-2.90035e-19
-3.43031e-19
-2.13707e-19
-3.19686e-19
-2.05161e-19
-2.5894e-19
-3.77041e-19
-4.0227e-19
-3.30488e-19
-3.5278e-19
-2.49739e-19
-3.70929e-19
-3.30921e-19
-3.96365e-19
-3.13892e-19
-3.97956e-19
-3.47433e-19
-4.11081e-19
-4.22376e-19
-3.09815e-19
-4.0226e-19
-2.993e-19
-4.32701e-19
-3.62148e-19
-3.84398e-19
-4.63033e-19
-4.25975e-19
-4.068e-19
-3.25154e-19
-3.63824e-19
-3.74867e-19
-3.84362e-19
-3.84795e-19
-3.63462e-19
-4.86985e-19
-2.5625e-19
-3.93564e-19
-2.80143e-19
-2.84919e-19
-4.27392e-19
-4.47327e-19
-4.22494e-19
-3.20002e-19
-4.82071e-19
-4.64258e-19
-3.27383e-19
-3.25486e-19
-3.50089e-19
-3.49598e-19
-3.82242e-19
-3.52127e-19
-2.92612e-19
-4.92031e-19
-4.02494e-19
-5.22233e-19
-3.59038e-19
-3.4889e-19
-4.53829e-19
-3.61245e-19
-3.7797e-19
-4.04738e-19
-3.53899e-19
-3.70622e-19
-3.95598e-19
-4.04138e-19
-4.14921e-19
-4.85453e-19
-4.48352e-19
-3.90404e-19
-4.30086e-19
-4.50332e-19
-3.19998e-19
-2.4114e-19
-2.68511e-19
-3.46846e-19
-3.38944e-19
-3.41361e-19
-4.44893e-19
-4.30218e-19
-3.41244e-19
-4.29565e-19
-3.24041e-19
-2.72159e-19
-3.10097e-19
-4.69342e-19
-3.1416e-19
-5.22485e-19
-3.22034e-19
-3.68187e-19
-3.86922e-19
-3.28689e-19
-2.46193e-19
-3.48563e-19
-4.39769e-19
-4.22729e-19
-3.08212e-19
-3.48704e-19
-4.78119e-19
-3.16949e-19
-4.24341e-19
-2.69962e-19
-2.94179e-19
-4.12319e-19
-4.21875e-19
-5.30351e-19
-3.31637e-19
-3.28535e-19
-5.00179e-19
-3.59888e-19
-3.21968e-19
-3.62257e-19
-4.17392e-19
-3.75065e-19
-4.01154e-19
-3.21036e-19
-3.223e-19
-4.46817e-19
-3.40324e-19
-3.44576e-19
-3.03105e-19
-4.66045e-19
-3.31959e-19
-4.47608e-19
-4.50489e-19
-4.35857e-19
-3.20446e-19
-3.90305e-19
-3.86817e-19
-3.63931e-19
-3.34642e-19
-3.34416e-19
-4.03789e-19
-3.43616e-19
-4.62827e-19
-3.752e-19
-2.7881e-19
-5.00751e-19
-3.48313e-19
-3.48847e-19
-4.77316e-19
-2.42385e-19
-2.96635e-19
-3.64355e-19
-3.02943e-19
-3.43525e-19
-4.20042e-19
-5.41148e-19
-3.65386e-19
-3.74381e-19
-3.15887e-19
-3.38771e-19
-3.16449e-19
-4.19982e-19
-4.02263e-19
-4.63626e-19
-3.54107e-19
-2.44621e-19
-2.72141e-19
-3.76111e-19
-3.48878e-19
-5.19459e-19
-4.71132e-19
-4.09814e-19
-3.95959e-19
-3.86812e-19
-3.60757e-19
-4.67601e-19
-3.25807e-19
-3.94206e-19
-3.99809e-19
-4.86632e-19
-3.40983e-19
-3.98539e-19
-4.09284e-19
-2.76236e-19
-4.08216e-19
-4.22242e-19
-3.64231e-19
-3.25576e-19
-2.47713e-19
-3.38953e-19
-3.44443e-19
-4.96306e-19
-3.5914e-19
-4.23001e-19
-3.13356e-19
-5.22265e-19
-4.49936e-19
-9.36344e-19
-6.85959e-19
-6.26308e-19
-6.39599e-19
-7.53653e-19
-7.99049e-19
-6.73148e-19
-6.38246e-19
-5.97334e-19
-7.45956e-19
-8.23433e-19
-8.15089e-19
-7.13321e-19
-6.62431e-19
-7.73794e-19
-6.14785e-19
-5.47193e-19
-7.97832e-19
-4.96224e-19
-5.26122e-19
-7.14009e-19
-6.1603e-19
-6.69299e-19
-8.14376e-19
-5.58201e-19
-6.2498e-19
-7.80405e-19
-6.28479e-19
-7.42217e-19
-5.91408e-19
-6.52857e-19
-6.4012e-19
-5.31379e-19
-7.3722e-19
-7.61863e-19
-7.56684e-19
-6.10074e-19
-9.43732e-19
-9.3629e-19
-6.10216e-19
-5.89612e-19
-6.63563e-19
-7.42782e-19
-8.76752e-19
-1.04909e-18
-7.26065e-19
-7.25691e-19
-6.2623e-19
-8.45621e-19
-6.43083e-19
-5.22293e-19
-5.9509e-19
-7.99523e-19
-6.03221e-19
-7.13187e-19
-7.49185e-19
-7.77238e-19
-9.337e-19
-6.21119e-19
-6.90741e-19
-6.17013e-19
-6.08228e-19
-5.4281e-19
-4.26474e-19
-4.26371e-19
-6.04195e-19
-7.48403e-19
-5.94917e-19
-7.24556e-19
-9.11492e-19
-4.38637e-19
-8.0287e-19
-6.58404e-19
-4.96845e-19
-6.4724e-19
-7.45583e-19
-1.02255e-18
-5.2063e-19
-7.7625e-19
-5.2942e-19
-5.95124e-19
-6.2062e-19
-6.44757e-19
-8.12331e-19
-6.6201e-19
-7.19178e-19
-6.8667e-19
-5.29815e-19
-5.09417e-19
-7.13021e-19
-5.94973e-19
-8.12208e-19
-6.47785e-19
-6.11923e-19
-5.43136e-19
-6.95102e-19
-5.7641e-19
-7.96791e-19
-7.65664e-19
-6.9205e-19
-6.47469e-19
-5.14051e-19
-5.35126e-19
-6.5681e-19
-4.92538e-19
-5.78688e-19
-8.18698e-19
-6.34431e-19
-7.35572e-19
-6.84733e-19
-5.79317e-19
-8.30775e-19
-7.85855e-19
-4.94876e-19
-6.29312e-19
-6.77541e-19
-6.46935e-19
-8.90947e-19
-6.85345e-19
-6.56195e-19
-6.00099e-19
-6.19076e-19
-7.95259e-19
-9.27089e-19
-6.61712e-19
-8.1615e-19
-8.43941e-19
-8.49432e-19
-7.54654e-19
-5.505e-19
-5.75514e-19
-8.24278e-19
-6.34239e-19
-5.99958e-19
-8.33578e-19
-9.61853e-19
-7.15877e-19
-6.75705e-19
-5.80235e-19
-6.44922e-19
-4.71587e-19
-6.73379e-19
-8.76504e-19
-8.09315e-19
-7.28874e-19
-8.14556e-19
-9.7248e-19
-6.99295e-19
-5.93127e-19
-6.50972e-19
-8.23252e-19
-4.05747e-19
-6.81248e-19
-9.61928e-19
-1.00088e-18
-6.1658e-19
-7.19915e-19
-5.47305e-19
-6.47462e-19
-6.77401e-19
-7.49282e-19
-5.99853e-19
-6.09153e-19
-5.39302e-19
-8.21056e-19
-6.32951e-19
-7.46311e-19
-5.74052e-19
-5.84099e-19
-5.24166e-19
-7.06529e-19
-7.88677e-19
-8.44383e-19
-6.99517e-19
-6.87648e-19
-6.33841e-19
-7.66234e-19
-5.55171e-19
-7.53196e-19
-6.53121e-19
-6.01153e-19
-6.00971e-19
-5.54719e-19
-5.72124e-19
-6.41472e-19
-6.09014e-19
-8.52573e-19
-8.09576e-19
-7.34382e-19
-7.55666e-19
-7.61873e-19
-6.55684e-19
-9.05237e-19
-5.27423e-19
-7.08146e-19
-8.32941e-19
-6.88927e-19
-7.39352e-19
-4.04069e-19
-5.09202e-19
-6.58754e-19
-8.36117e-19
-7.00189e-19
-5.05833e-19
-5.99894e-19
-4.58318e-19
-6.5904e-19
-7.0238e-19
-6.72353e-19
-6.75372e-19
-5.00428e-19
-7.36771e-19
-9.07676e-19
-6.19353e-19
-7.65179e-19
-7.58146e-19
-6.49121e-19
-6.62766e-19
-8.37152e-19
-6.86963e-19
-6.10176e-19
-8.14321e-19
-8.31312e-19
-5.78765e-19
-7.53762e-19
-6.14593e-19
-7.20356e-19
-6.48479e-19
-7.12072e-19
-8.37041e-19
-8.40378e-19
-7.85726e-19
-7.1616e-19
-9.1787e-19
-8.05986e-19
-7.35319e-19
-7.94694e-19
-6.08553e-19
-5.35928e-19
-7.82159e-19
-5.69436e-19
-5.10129e-19
-5.0593e-19
-5.77492e-19
-5.31738e-19
-6.79956e-19
-7.36312e-19
-7.42021e-19
-5.76754e-19
-7.4478e-19
-7.31373e-19
-5.63698e-19
-7.69565e-19
-7.64191e-19
-4.50647e-19
-6.64213e-19
-1.15711e-18
-9.08033e-19
-9.56568e-19
-1.14074e-18
-1.23884e-18
-1.58619e-18
-9.63181e-19
-1.36936e-18
-1.23338e-18
-1.13481e-18
-1.18926e-18
-1.31335e-18
-1.31888e-18
-1.80257e-18
-1.35074e-18
-1.1022e-18
-1.27607e-18
-1.10944e-18
-8.56722e-19
-8.70511e-19
-1.40113e-18
-1.05182e-18
-1.12428e-18
-1.26007e-18
-1.0833e-18
-8.24002e-19
-1.15652e-18
-1.18654e-18
-1.21671e-18
-1.20951e-18
-1.49086e-18
-1.54789e-18
-1.28441e-18
-8.54529e-19
-1.70024e-18
-1.40477e-18
-1.41152e-18
-1.1753e-18
-1.16393e-18
-1.03786e-18
-9.20229e-19
-1.69909e-18
-1.20297e-18
-1.15017e-18
-1.53076e-18
-9.72783e-19
-1.48571e-18
-1.32296e-18
-8.45545e-19
-8.87303e-19
-8.79295e-19
-1.62148e-18
-1.41144e-18
-1.68777e-18
-1.36046e-18
-1.3949e-18
-1.26224e-18
-1.47742e-18
-1.41922e-18
-1.28919e-18
-9.77649e-19
-9.47452e-19
-1.07233e-18
-1.39577e-18
-1.30124e-18
-1.21902e-18
-1.04758e-18
-1.43377e-18
-1.09529e-18
-1.37743e-18
-1.1106e-18
-8.1467e-19
-9.52751e-19
-9.24725e-19
-1.39241e-18
-1.19458e-18
-1.43886e-18
-8.12854e-19
-1.6694e-18
-9.51082e-19
-1.31174e-18
-1.08693e-18
-1.06426e-18
-1.39272e-18
-9.71938e-19
-1.45911e-18
-7.63008e-19
-1.12299e-18
-1.21583e-18
-1.15819e-18
-1.47434e-18
-1.50941e-18
-8.74418e-19
-1.50769e-18
-1.42947e-18
-1.47871e-18
-1.11057e-18
-1.13317e-18
-9.95465e-19
-1.14779e-18
-1.21743e-18
-1.10862e-18
-1.24546e-18
-1.28945e-18
-1.20098e-18
-1.50239e-18
-1.28632e-18
-1.69299e-18
-1.28652e-18
-1.31174e-18
-2.19393e-18
-1.17453e-18
-1.21108e-18
-1.01573e-18
-1.31596e-18
-8.85727e-19
-1.20343e-18
-1.07748e-18
-1.21677e-18
-9.82632e-19
-9.70572e-19
-1.12112e-18
-1.40981e-18
-1.14383e-18
-1.08142e-18
-1.46839e-18
-1.09664e-18
-1.0689e-18
-1.05712e-18
-1.07141e-18
-9.79473e-19
-1.15648e-18
-6.57056e-19
-1.44023e-18
-1.66717e-18
-1.35998e-18
-9.63405e-19
-1.32789e-18
-1.47056e-18
-1.56849e-18
-8.86555e-19
-1.06892e-18
-1.10649e-18
-1.52079e-18
-1.45098e-18
-1.55511e-18
-1.36036e-18
-1.71027e-18
-1.0128e-18
-8.73401e-19
-1.29171e-18
-1.00928e-18
-1.47988e-18
-1.41958e-18
-1.47942e-18
-1.54725e-18
-1.2934e-18
-9.13313e-19
-7.48519e-19
-1.9158e-18
-1.08617e-18
-1.21195e-18
-1.22999e-18
-1.29882e-18
-9.12251e-19
-9.93695e-19
-1.4816e-18
-9.82614e-19
-1.08277e-18
-1.40755e-18
-1.22164e-18
-1.42602e-18
-1.70517e-18
-1.24166e-18
-1.20151e-18
-1.91982e-18
-1.54601e-18
-9.78336e-19
-9.78715e-19
-1.31951e-18
-1.25461e-18
-1.31834e-18
-1.4062e-18
-1.28368e-18
-1.39465e-18
-1.08479e-18
-1.58781e-18
-1.56546e-18
-8.66719e-19
-9.77484e-19
-1.3057e-18
-1.49624e-18
-1.1388e-18
-1.61032e-18
-1.32479e-18
-1.06312e-18
-1.45917e-18
-1.21974e-18
-1.1107e-18
-9.47005e-19
-8.80824e-19
-1.05002e-18
-1.20978e-18
-1.32066e-18
-1.11359e-18
-1.43304e-18
-1.35468e-18
-1.36477e-18
-1.1657e-18
-1.63307e-18
-1.39203e-18
-1.66609e-18
-1.03218e-18
-1.18838e-18
-1.34855e-18
-1.05373e-18
-1.22992e-18
-1.25334e-18
-1.35729e-18
-1.22825e-18
-1.39664e-18
-1.3359e-18
-1.08886e-18
-1.42966e-18
-1.17503e-18
-8.85527e-19
-1.16616e-18
-1.78095e-18
-1.30365e-18
-1.81768e-18
-2.20067e-18
-1.36198e-18
-1.16837e-18
-1.47078e-18
-1.39799e-18
-1.08642e-18
-1.54469e-18
-1.51168e-18
-7.80769e-19
-1.17731e-18
-1.20379e-18
-1.55927e-18
-1.31581e-18
-1.15573e-18
-1.49196e-18
-1.04147e-18
-9.11478e-19
-1.60659e-18
-1.74406e-18
-1.50528e-18
-1.17435e-18
-1.41395e-18
-1.44464e-18
-1.42125e-18
-1.00437e-18
-7.73494e-19
-2.73925e-18
-1.82198e-18
-1.66391e-18
-1.75906e-18
-2.52736e-18
-1.90952e-18
-2.39457e-18
-1.78776e-18
-2.53467e-18
-1.94051e-18
-2.53189e-18
-2.20726e-18
-2.94803e-18
-1.65713e-18
-2.62001e-18
-2.25909e-18
-1.93416e-18
-2.21879e-18
-1.89655e-18
-1.87307e-18
-2.10731e-18
-1.71249e-18
-1.99483e-18
-2.3177e-18
-2.5223e-18
-2.5629e-18
-2.85417e-18
-3.77492e-18
-1.66581e-18
-1.91118e-18
-3.57596e-18
-2.36276e-18
-3.08948e-18
-1.76197e-18
-2.14688e-18
-2.09605e-18
-2.6469e-18
-1.8382e-18
-2.97098e-18
-2.13585e-18
-2.56596e-18
-2.91619e-18
-2.79398e-18
-2.69826e-18
-2.34941e-18
-2.46186e-18
-2.45666e-18
-1.89322e-18
-2.15944e-18
-2.30521e-18
-1.87973e-18
-2.37371e-18
-2.96276e-18
-2.12552e-18
-2.15806e-18
-1.863e-18
-2.49339e-18
-2.86368e-18
-2.56022e-18
-2.43372e-18
-2.41448e-18
-2.17509e-18
-2.70602e-18
-2.76414e-18
-2.14412e-18
-2.93888e-18
-1.92629e-18
-2.04796e-18
-1.87089e-18
-1.7315e-18
-1.73991e-18
-2.13863e-18
-1.92432e-18
-2.49309e-18
-1.7653e-18
-2.31582e-18
-2.66472e-18
-2.25354e-18
-2.57245e-18
-2.51569e-18
-2.09065e-18
-2.21152e-18
-2.32624e-18
-2.31096e-18
-3.81921e-18
-2.09077e-18
-1.7029e-18
-1.85094e-18
-2.90084e-18
-2.21169e-18
-2.51873e-18
-1.44446e-18
-2.42883e-18
-2.74476e-18
-3.19421e-18
-2.32593e-18
-2.88351e-18
-3.3055e-18
-2.48557e-18
-2.73553e-18
-2.85024e-18
-1.99494e-18
-2.43685e-18
-2.29285e-18
-1.70917e-18
-2.55103e-18
-2.78122e-18
-2.825e-18
-2.58463e-18
-1.49425e-18
-2.21463e-18
-2.41391e-18
-2.44217e-18
-1.85965e-18
-2.49602e-18
-2.61662e-18
-2.86713e-18
-2.28528e-18
-2.39559e-18
-2.24207e-18
-2.10218e-18
-1.5571e-18
-3.12457e-18
-2.39717e-18
-2.27189e-18
-2.34122e-18
-2.35296e-18
-2.22593e-18
-2.08199e-18
-1.89771e-18
-1.71756e-18
-1.78394e-18
-2.46262e-18
-2.30454e-18
-2.61e-18
-2.3634e-18
-2.54155e-18
-2.67743e-18
-2.31947e-18
-2.7124e-18
-2.84356e-18
-1.40383e-18
-2.54027e-18
-3.31552e-18
-3.21529e-18
-2.0736e-18
-2.07283e-18
-2.18831e-18
-1.2403e-18
-1.95716e-18
-2.51647e-18
-2.28796e-18
-2.19441e-18
-2.25032e-18
-1.70962e-18
-2.37161e-18
-2.78382e-18
-1.9269e-18
-2.30899e-18
-1.76146e-18
-1.94077e-18
-2.16257e-18
-2.89901e-18
-2.01484e-18
-2.15516e-18
-1.91901e-18
-2.63573e-18
-2.42027e-18
-2.62855e-18
-2.59626e-18
-2.59135e-18
-2.25488e-18
-2.47949e-18
-2.24311e-18
-2.25781e-18
-2.30745e-18
-2.34979e-18
-3.06081e-18
-1.74521e-18
-2.40713e-18
-1.89694e-18
-1.84377e-18
-2.3935e-18
-2.22622e-18
-2.71458e-18
-2.77667e-18
-2.03885e-18
-2.94745e-18
-2.96163e-18
-2.78186e-18
-2.6603e-18
-3.20319e-18
-2.31579e-18
-2.57984e-18
-1.865e-18
-1.84015e-18
-1.77131e-18
-1.62922e-18
-2.33948e-18
-3.25672e-18
-2.05437e-18
-2.72205e-18
-2.30648e-18
-2.1126e-18
-2.33994e-18
-2.50847e-18
-1.80874e-18
-2.65936e-18
-3.01173e-18
-2.80755e-18
-1.88397e-18
-2.98785e-18
-2.10319e-18
-2.52869e-18
-2.64165e-18
-2.07377e-18
-2.60673e-18
-1.88606e-18
-2.29902e-18
-2.75787e-18
-2.20834e-18
-3.22851e-18
-2.18729e-18
-2.70808e-18
-3.25679e-18
-1.83245e-18
-2.62418e-18
-3.15181e-18
-2.55962e-18
-2.11377e-18
-3.12478e-18
-3.18721e-18
-2.58377e-18
-2.9211e-18
-2.27523e-18
-2.37422e-18
-2.14157e-18
-2.53294e-18
-2.09456e-18
-1.98978e-18
-2.11728e-18
-2.92405e-18
-2.44771e-18
-2.29546e-18
-1.79345e-18
-2.85218e-18
-2.05379e-18
-3.08834e-18
-1.93876e-18
-3.29414e-18
-3.47268e-18
-2.95098e-18
-2.44375e-18
-1.80041e-18
-2.07254e-18
-1.96306e-18
-6.88071e-18
-4.46228e-18
-4.17667e-18
-3.22171e-18
-3.72408e-18
-4.12717e-18
-4.2842e-18
-3.48998e-18
-3.98276e-18
-4.15223e-18
-4.73594e-18
-5.52922e-18
-4.95298e-18
-4.93534e-18
-2.57921e-18
-3.74888e-18
-3.66891e-18
-3.70353e-18
-3.82356e-18
-4.09733e-18
-3.6733e-18
-3.34906e-18
-4.45331e-18
-4.78617e-18
-3.96018e-18
-6.98968e-18
-6.18234e-18
-6.82928e-18
-4.23323e-18
-3.82259e-18
-4.20394e-18
-3.80729e-18
-3.63754e-18
-3.42557e-18
-4.22982e-18
-5.91996e-18
-4.68109e-18
-5.41641e-18
-5.17001e-18
-4.79713e-18
-3.66366e-18
-4.79394e-18
-5.25574e-18
-4.37006e-18
-5.3869e-18
-3.88869e-18
-4.13607e-18
-6.30116e-18
-5.64574e-18
-5.27902e-18
-3.23733e-18
-5.31499e-18
-3.78402e-18
-3.30739e-18
-3.65109e-18
-3.91175e-18
-4.01217e-18
-4.587e-18
-4.35124e-18
-4.47456e-18
-4.48682e-18
-4.29872e-18
-3.93655e-18
-5.17739e-18
-4.39168e-18
-4.67999e-18
-3.5354e-18
-4.25319e-18
-3.99767e-18
-4.59438e-18
-3.15707e-18
-3.81457e-18
-3.09932e-18
-3.88936e-18
-4.92695e-18
-4.79343e-18
-5.16252e-18
-4.71393e-18
-4.93391e-18
-4.38718e-18
-3.94934e-18
-2.21314e-18
-3.68193e-18
-3.36915e-18
-4.7654e-18
-3.24253e-18
-4.70684e-18
-4.86121e-18
-4.63273e-18
-4.28119e-18
-4.0604e-18
-4.10465e-18
-5.55107e-18
-3.33865e-18
-3.3651e-18
-3.90362e-18
-5.11188e-18
-5.22868e-18
-5.16746e-18
-4.78722e-18
-4.74666e-18
-3.83304e-18
-3.19257e-18
-5.06751e-18
-4.45363e-18
-3.86088e-18
-4.28139e-18
-3.05706e-18
-5.83912e-18
-4.1754e-18
-5.12267e-18
-4.75059e-18
-4.36738e-18
-3.51104e-18
-4.45296e-18
-4.43704e-18
-4.87713e-18
-4.40202e-18
-4.56912e-18
-3.99175e-18
-4.32241e-18
-3.18468e-18
-3.74197e-18
-3.73192e-18
-2.83845e-18
-5.48433e-18
-4.39098e-18
-5.44438e-18
-4.48847e-18
-4.76183e-18
-3.73058e-18
-4.82076e-18
-4.66333e-18
-4.66219e-18
-3.71246e-18
-4.49207e-18
-4.83426e-18
-3.63738e-18
-5.88458e-18
-6.56552e-18
-4.29223e-18
-3.82146e-18
-5.40852e-18
-5.60524e-18
-5.39872e-18
-4.23846e-18
-4.42987e-18
-3.45803e-18
-3.05722e-18
-5.18544e-18
-4.81037e-18
-4.07415e-18
-3.84481e-18
-4.19583e-18
-3.27905e-18
-2.79444e-18
-4.89265e-18
-3.32796e-18
-4.0064e-18
-3.08915e-18
-4.0565e-18
-4.60091e-18
-5.26593e-18
-5.11298e-18
-4.90023e-18
-4.88408e-18
-4.46463e-18
-3.28234e-18
-5.95964e-18
-3.95129e-18
-3.84502e-18
-4.5748e-18
-5.38118e-18
-4.40989e-18
-4.62986e-18
-4.08543e-18
-2.44794e-18
-4.42361e-18
-4.18477e-18
-4.84856e-18
-4.30991e-18
-4.41764e-18
-4.1119e-18
-4.51942e-18
-3.7318e-18
-6.8397e-18
-2.70622e-18
-5.39339e-18
-4.49056e-18
-4.44089e-18
-4.34652e-18
-4.61577e-18
-3.43188e-18
-4.05335e-18
-5.06792e-18
-3.16829e-18
-4.89571e-18
-3.58579e-18
-5.29807e-18
-4.84366e-18
-4.07658e-18
-3.77549e-18
-4.21486e-18
-5.10319e-18
-3.97226e-18
-4.80855e-18
-2.73541e-18
-4.46554e-18
-3.69861e-18
-4.96808e-18
-4.31562e-18
-5.23152e-18
-3.98605e-18
-3.10167e-18
-3.59479e-18
-2.95373e-18
-6.28362e-18
-2.86958e-18
-5.81343e-18
-5.33532e-18
-3.19203e-18
-2.89895e-18
-4.91457e-18
-5.3132e-18
-4.54941e-18
-4.47525e-18
-4.57015e-18
-3.70619e-18
-5.87172e-18
-4.36183e-18
-5.73906e-18
-3.44638e-18
-5.50331e-18
-3.86563e-18
-3.43216e-18
-4.2938e-18
-4.24656e-18
-3.7678e-18
-4.60817e-18
-4.40414e-18
-4.31927e-18
-4.80374e-18
-5.0081e-18
-4.37046e-18
-3.34125e-18
-3.66265e-18
-3.75849e-18
-3.85976e-18
-4.52326e-18
-4.46842e-18
-4.56501e-18
-3.77133e-18
-2.68247e-18
-3.01126e-18
-3.78196e-18
-3.36071e-18
-1.08342e-17
-9.2068e-18
-8.74915e-18
-8.29708e-18
-6.0633e-18
-7.15597e-18
-6.89614e-18
-7.58981e-18
-9.96766e-18
-9.29916e-18
-7.34688e-18
-6.40786e-18
-9.72525e-18
-7.66359e-18
-7.8433e-18
-7.70653e-18
-1.00839e-17
-8.07159e-18
-1.20561e-17
-8.0008e-18
-7.67873e-18
-8.00926e-18
-1.11004e-17
-6.93914e-18
-8.7963e-18
-9.68115e-18
-9.41875e-18
-1.16431e-17
-9.36579e-18
-8.64531e-18
-8.70641e-18
-5.99732e-18
-6.78862e-18
-7.38749e-18
-1.02226e-17
-6.48582e-18
-6.03684e-18
-8.79055e-18
-8.00579e-18
-5.76538e-18
-6.76651e-18
-1.11983e-17
-1.06132e-17
-1.03342e-17
-1.02351e-17
-8.6743e-18
-6.80388e-18
-1.02142e-17
-6.59041e-18
-9.38506e-18
-1.18346e-17
-1.04802e-17
-7.83538e-18
-6.05046e-18
-6.90891e-18
-8.45317e-18
-6.83852e-18
-7.2177e-18
-8.19842e-18
-6.47309e-18
-6.17033e-18
-7.58692e-18
-7.09949e-18
-7.99091e-18
-7.06588e-18
-9.39404e-18
-6.70806e-18
-6.72531e-18
-5.32864e-18
-7.6247e-18
-9.22043e-18
-5.56381e-18
-9.55652e-18
-9.14274e-18
-9.42147e-18
-7.48236e-18
-7.01158e-18
-1.02976e-17
-1.06489e-17
-6.57306e-18
-8.2468e-18
-5.81915e-18
-8.08125e-18
-5.3093e-18
-8.92858e-18
-8.27586e-18
-9.63257e-18
-7.28669e-18
-7.52592e-18
-6.61294e-18
-1.04492e-17
-7.76694e-18
-7.06727e-18
-5.48208e-18
-8.26488e-18
-7.67708e-18
-8.0692e-18
-1.05973e-17
-9.79308e-18
-1.05198e-17
-1.128e-17
-7.46792e-18
-7.57382e-18
-6.19066e-18
-8.12875e-18
-1.4491e-17
-1.08575e-17
-7.54627e-18
-4.22132e-18
-9.18467e-18
-9.49558e-18
-8.79598e-18
-9.22528e-18
-1.01391e-17
-9.12378e-18
-7.18556e-18
-7.28181e-18
-5.82378e-18
-7.64435e-18
-1.08611e-17
-5.74728e-18
-8.6474e-18
-8.29798e-18
-5.35996e-18
-5.12828e-18
-7.46226e-18
-6.88331e-18
-6.7096e-18
-6.22842e-18
-7.75105e-18
-7.22538e-18
-7.83325e-18
-6.51132e-18
-7.11893e-18
-8.00844e-18
-6.1247e-18
-7.66817e-18
-9.07864e-18
-7.99204e-18
-9.74155e-18
-8.38431e-18
-7.68192e-18
-9.06849e-18
-8.31345e-18
-8.5461e-18
-8.76587e-18
-7.2759e-18
-6.06242e-18
-7.86449e-18
-6.85833e-18
-4.97815e-18
-5.78649e-18
-7.99203e-18
-1.04695e-17
-6.92584e-18
-8.35552e-18
-6.69803e-18
-7.27744e-18
-6.87686e-18
-6.55122e-18
-7.07103e-18
-5.77486e-18
-6.91636e-18
-9.51555e-18
-7.89577e-18
-6.66491e-18
-7.75627e-18
-8.38174e-18
-1.03156e-17
-8.75934e-18
-7.16228e-18
-6.71531e-18
-8.02637e-18
-5.31454e-18
-6.80791e-18
-8.12937e-18
-8.18663e-18
-4.84258e-18
-7.40076e-18
-6.62987e-18
-7.46364e-18
-7.96686e-18
-9.56917e-18
-7.7252e-18
-5.46346e-18
-8.83209e-18
-7.22383e-18
-7.20649e-18
-6.78778e-18
-5.28084e-18
-6.98552e-18
-9.2593e-18
-8.18491e-18
-8.15228e-18
-6.64706e-18
-9.19379e-18
-9.59904e-18
-8.79165e-18
-6.36241e-18
-7.7157e-18
-5.54865e-18
-8.10211e-18
-8.28701e-18
-1.02801e-17
-5.86662e-18
-6.01427e-18
-9.41821e-18
-7.71587e-18
-8.95185e-18
-1.24407e-17
-8.81264e-18
-1.25484e-17
-7.84134e-18
-1.0385e-17
-8.2773e-18
-7.15828e-18
-7.9771e-18
-7.56741e-18
-7.62052e-18
-1.14219e-17
-7.11346e-18
-7.91915e-18
-6.4605e-18
-5.95451e-18
-1.05245e-17
-8.385e-18
-8.10932e-18
-8.03183e-18
-1.05568e-17
-6.73905e-18
-1.00798e-17
-8.62113e-18
-8.41439e-18
-7.69609e-18
-8.37481e-18
-5.44942e-18
-1.07202e-17
-7.57384e-18
-6.07165e-18
-8.73796e-18
-8.28267e-18
-1.06197e-17
-7.72359e-18
-8.74499e-18
-6.24577e-18
-8.27572e-18
-6.53674e-18
-8.05848e-18
-9.50362e-18
-9.16035e-18
-9.27456e-18
-6.70869e-18
-7.16336e-18
-5.61582e-18
-5.92402e-18
-7.68793e-18
-1.9931e-17
-1.12449e-17
-1.62579e-17
-1.92452e-17
-1.35373e-17
-1.68884e-17
-1.67292e-17
-1.52806e-17
-2.10554e-17
-1.56046e-17
-1.36277e-17
-1.65722e-17
-1.78541e-17
-1.07288e-17
-1.35622e-17
-1.23521e-17
-1.59002e-17
-1.44781e-17
-1.46587e-17
-1.46011e-17
-1.3662e-17
-1.64651e-17
-1.05717e-17
-8.9047e-18
-1.22002e-17
-1.92162e-17
-2.17926e-17
-1.72299e-17
-1.16803e-17
-1.74562e-17
-1.51194e-17
-1.96483e-17
-1.35438e-17
-1.82939e-17
-1.31425e-17
-9.34733e-18
-1.73108e-17
-1.73194e-17
-1.31194e-17
-1.6593e-17
-1.55735e-17
-1.79663e-17
-1.78442e-17
-1.62359e-17
-1.61457e-17
-1.56049e-17
-2.02699e-17
-1.60422e-17
-1.38849e-17
-1.37734e-17
-1.43837e-17
-1.61404e-17
-1.56108e-17
-1.34365e-17
-1.71288e-17
-1.22407e-17
-1.13155e-17
-1.09671e-17
-1.39668e-17
-1.25639e-17
-1.11406e-17
-1.27571e-17
-1.15729e-17
-1.67133e-17
-1.25749e-17
-1.98895e-17
-1.47683e-17
-1.90973e-17
-1.788e-17
-1.25697e-17
-1.22118e-17
-1.56052e-17
-1.61321e-17
-1.60096e-17
-1.15477e-17
-1.61963e-17
-1.35213e-17
-1.85372e-17
-1.22415e-17
-1.61214e-17
-1.55244e-17
-1.4248e-17
-1.53719e-17
-1.57203e-17
-9.50856e-18
-1.80457e-17
-1.84186e-17
-1.66633e-17
-1.63345e-17
-1.46911e-17
-1.18099e-17
-1.73504e-17
-1.44549e-17
-1.25237e-17
-1.397e-17
-1.33611e-17
-1.90826e-17
-2.01374e-17
-1.92619e-17
-2.02278e-17
-2.29178e-17
-1.57841e-17
-1.08753e-17
-1.22461e-17
-1.21595e-17
-1.43667e-17
-1.02489e-17
-1.64414e-17
-1.62874e-17
-1.37263e-17
-1.16102e-17
-1.25359e-17
-1.55225e-17
-1.44513e-17
-1.21292e-17
-1.73677e-17
-1.68047e-17
-1.52663e-17
-1.64984e-17
-1.47032e-17
-1.7369e-17
-1.08576e-17
-1.5657e-17
-1.67439e-17
-1.44789e-17
-1.45232e-17
-1.22248e-17
-1.78748e-17
-1.45822e-17
-1.88876e-17
-1.48194e-17
-1.1343e-17
-1.8686e-17
-1.67813e-17
-1.2325e-17
-1.51778e-17
-1.4872e-17
-1.42529e-17
-2.14334e-17
-1.23165e-17
-1.12853e-17
-1.22842e-17
-1.81891e-17
-1.02364e-17
-1.81966e-17
-1.6628e-17
-1.86007e-17
-1.69991e-17
-1.37497e-17
-1.28506e-17
-1.56036e-17
-1.1482e-17
-9.69997e-18
-1.38276e-17
-1.31396e-17
-1.20298e-17
-1.20213e-17
-1.42562e-17
-1.83019e-17
-1.39331e-17
-1.83773e-17
-1.61111e-17
-1.79612e-17
-1.66876e-17
-1.65993e-17
-1.62876e-17
-1.46551e-17
-1.21013e-17
-1.86004e-17
-1.52542e-17
-1.24065e-17
-1.38078e-17
-1.41812e-17
-1.3773e-17
-1.07476e-17
-1.24081e-17
-1.72167e-17
-1.45949e-17
-1.44857e-17
-1.96239e-17
-1.74828e-17
-1.45977e-17
-9.34035e-18
-1.44469e-17
-1.54186e-17
-1.54834e-17
-1.652e-17
-1.10438e-17
-1.43459e-17
-1.3155e-17
-7.06304e-18
-1.76744e-17
-1.44835e-17
-1.40495e-17
-1.14345e-17
-1.38731e-17
-1.49115e-17
-1.21923e-17
-1.34976e-17
-1.11661e-17
-1.62474e-17
-1.57483e-17
-1.26378e-17
-1.59218e-17
-1.80544e-17
-1.15896e-17
-1.56934e-17
-2.12722e-17
-1.56769e-17
-1.77667e-17
-1.55335e-17
-1.73469e-17
-1.29837e-17
-1.36207e-17
-1.11582e-17
-1.56316e-17
-1.19155e-17
-1.50648e-17
-1.29056e-17
-1.60078e-17
-1.27136e-17
-1.13825e-17
-1.47658e-17
-1.63004e-17
-1.74776e-17
-1.34364e-17
-1.91521e-17
-1.71354e-17
-1.97396e-17
-1.75792e-17
-1.14606e-17
-1.30822e-17
-1.25755e-17
-1.3467e-17
-1.49729e-17
-1.75497e-17
-1.21687e-17
-1.20553e-17
-1.24449e-17
-1.81922e-17
-2.0515e-17
-1.71504e-17
-1.5294e-17
-1.25486e-17
-1.63922e-17
-1.86631e-17
-1.54448e-17
-1.87396e-17
-1.45598e-17
-1.14868e-17
-1.15585e-17
-1.00291e-17
-1.24464e-17
-9.49035e-18
-1.29177e-17
-1.36965e-17
-3.11005e-17
-3.36462e-17
-3.25151e-17
-3.18507e-17
-2.02383e-17