# vtk DataFile Version 1.0
Electron Density - Current Sheet 
ASCII
DATASET STRUCTURED_POINTS
DIMENSIONS 256 128 1
ORIGIN 0 0 0
SPACING 0.15625 0.15625 1
POINT_DATA 32768
SCALARS rhoe float
LOOKUP_TABLE default
-2.01545e-19
-1.6645e-19
-1.66664e-19
-1.73143e-19
-1.71499e-19
-1.33878e-19
-2.08324e-19
-2.16775e-19
-1.86949e-19
-1.73327e-19
-1.19965e-19
-1.12459e-19
-1.38417e-19
-1.02951e-19
-1.45367e-19
-1.543e-19
-1.87632e-19
-1.94087e-19
-1.99184e-19
-2.46553e-19
-1.68205e-19
-1.87659e-19
-1.30276e-19
-1.66216e-19
-1.91512e-19
-1.58417e-19
-1.98442e-19
-1.24669e-19
-2.39597e-19
-1.41961e-19
-1.7843e-19
-1.27777e-19
-1.89246e-19
-2.20251e-19
-2.39148e-19
-9.113e-20
-1.55162e-19
-2.22789e-19
-1.83103e-19
-1.96346e-19
-1.43288e-19
-1.59241e-19
-2.25863e-19
-1.13631e-19
-1.05045e-19
-1.33554e-19
-2.20138e-19
-1.69077e-19
-2.60031e-19
-2.47128e-19
-1.04612e-19
-8.79992e-20
-1.7356e-19
-1.2525e-19
-2.09274e-19
-1.65406e-19
-1.19543e-19
-1.44225e-19
-1.23887e-19
-1.44554e-19
-1.69416e-19
-1.46791e-19
-1.57949e-19
-2.62071e-19
-1.9798e-19
-1.11715e-19
-2.06977e-19
-2.1085e-19
-1.81261e-19
-1.578e-19
-1.46831e-19
-2.48376e-19
-1.03313e-19
-1.06196e-19
-1.1015e-19
-1.41304e-19
-1.99635e-19
-1.77694e-19
-1.51144e-19
-1.72948e-19
-1.7156e-19
-1.56646e-19
-1.76937e-19
-1.32131e-19
-2.7325e-19
-1.57478e-19
-1.82925e-19
-1.6435e-19
-1.63178e-19
-1.69067e-19
-1.44699e-19
-1.53682e-19
-1.13328e-19
-1.73517e-19
-1.43183e-19
-1.72231e-19
-1.44945e-19
-1.87986e-19
-1.69733e-19
-9.84997e-20
-2.07939e-19
-1.69613e-19
-2.56886e-19
-1.88849e-19
-1.22588e-19
-1.50056e-19
-1.28417e-19
-1.06782e-19
-1.32901e-19
-1.75208e-19
-1.60865e-19
-1.5164e-19
-1.2965e-19
-1.38614e-19
-1.76172e-19
-1.53415e-19
-1.85633e-19
-2.3468e-19
-1.83599e-19
-2.29572e-19
-2.32566e-19
-1.2536e-19
-1.09141e-19
-1.71846e-19
-2.55772e-19
-2.36036e-19
-2.34735e-19
-2.26286e-19
-1.81624e-19
-2.08265e-19
-2.07945e-19
-1.58756e-19
-1.45439e-19
-2.62662e-19
-1.64263e-19
-1.47135e-19
-2.54235e-19
-1.71775e-19
-1.14805e-19
-1.92491e-19
-1.65925e-19
-1.9073e-19
-1.49052e-19
-1.24795e-19
-1.66012e-19
-1.27727e-19
-1.81498e-19
-1.16721e-19
-2.2329e-19
-1.29561e-19
-2.59919e-19
-1.52659e-19
-1.90334e-19
-2.06853e-19
-1.68523e-19
-1.71206e-19
-1.14939e-19
-1.98675e-19
-1.82847e-19
-1.503e-19
-1.20874e-19
-2.05214e-19
-1.9121e-19
-1.29542e-19
-1.7121e-19
-2.40887e-19
-1.70889e-19
-2.43063e-19
-1.2703e-19
-1.6886e-19
-2.75575e-19
-1.90839e-19
-2.43777e-19
-1.54932e-19
-2.15818e-19
-2.10141e-19
-1.98378e-19
-1.37263e-19
-2.46588e-19
-1.21689e-19
-2.11158e-19
-1.71958e-19
-1.14435e-19
-1.89753e-19
-1.855e-19
-2.14011e-19
-1.61726e-19
-1.36987e-19
-1.76319e-19
-1.96401e-19
-1.32931e-19
-2.03229e-19
-1.48685e-19
-1.65592e-19
-1.77956e-19
-1.56625e-19
-1.90381e-19
-1.59412e-19
-1.97052e-19
-1.55896e-19
-9.72109e-20
-1.12734e-19
-1.97467e-19
-6.68906e-20
-1.18772e-19
-2.16851e-19
-1.86316e-19
-1.44172e-19
-2.03643e-19
-2.35675e-19
-1.79019e-19
-1.93989e-19
-2.12457e-19
-1.70484e-19
-1.71081e-19
-1.73957e-19
-1.73693e-19
-1.41394e-19
-1.40238e-19
-1.70198e-19
-1.56466e-19
-2.43146e-19
-3.22221e-19
-2.15593e-19
-1.88712e-19
-1.44108e-19
-1.58882e-19
-1.72714e-19
-2.82742e-19
-2.05277e-19
-2.71611e-19
-2.1608e-19
-1.72959e-19
-1.57589e-19
-1.47033e-19
-1.20904e-19
-1.86457e-19
-1.01076e-19
-1.28728e-19
-1.58165e-19
-1.47301e-19
-2.45347e-19
-1.912e-19
-2.16306e-19
-1.56525e-19
-1.5545e-19
-2.48849e-19
-1.40969e-19
-2.64041e-19
-1.6097e-19
-1.80516e-19
-2.20467e-19
-2.17779e-19
-1.91509e-19
-1.37931e-19
-1.62391e-19
-2.3992e-19
-2.01423e-19
-2.70381e-19
-2.0448e-19
-2.20775e-19
-2.57098e-19
-2.21762e-19
-1.99046e-19
-2.27854e-19
-1.32409e-19
-1.79417e-19
-2.15224e-19
-2.78486e-19
-1.43441e-19
-2.11645e-19
-1.36471e-19
-1.79497e-19
-2.35039e-19
-2.04403e-19
-2.01331e-19
-2.36804e-19
-2.56896e-19
-1.79671e-19
-1.93381e-19
-2.37074e-19
-2.08785e-19
-2.88305e-19
-2.47863e-19
-2.17206e-19
-2.59384e-19
-2.49378e-19
-2.22285e-19
-2.57176e-19
-2.71248e-19
-1.73894e-19
-2.41242e-19
-2.13253e-19
-1.87172e-19
-2.21609e-19
-2.32788e-19
-1.93231e-19
-2.22089e-19
-2.14305e-19
-2.30858e-19
-2.15876e-19
-2.38022e-19
-1.97289e-19
-2.35941e-19
-1.83122e-19
-2.05177e-19
-1.82991e-19
-1.79991e-19
-1.62114e-19
-1.68925e-19
-1.50562e-19
-1.45584e-19
-1.98398e-19
-2.63224e-19
-1.89893e-19
-2.55078e-19
-2.36065e-19
-2.5204e-19
-2.58261e-19
-2.19039e-19
-1.98034e-19
-1.4602e-19
-2.24415e-19
-2.48313e-19
-1.92322e-19
-2.3003e-19
-2.22072e-19
-2.21741e-19
-1.82822e-19
-2.20155e-19
-2.24844e-19
-1.55243e-19
-2.09239e-19
-1.92174e-19
-2.56503e-19
-1.92819e-19
-2.36546e-19
-2.2652e-19
-2.10029e-19
-1.74132e-19
-1.83722e-19
-2.83067e-19
-2.71293e-19
-2.08827e-19
-1.88959e-19
-1.55101e-19
-2.53323e-19
-2.20881e-19
-1.48842e-19
-1.62591e-19
-2.04366e-19
-1.85673e-19
-2.06968e-19
-2.28971e-19
-2.90947e-19
-2.3919e-19
-2.42426e-19
-2.68705e-19
-1.97885e-19
-1.68835e-19
-2.77181e-19
-2.40928e-19
-1.82174e-19
-2.27262e-19
-2.35671e-19
-2.46443e-19
-2.38592e-19
-2.7843e-19
-2.79459e-19
-2.30908e-19
-2.37228e-19
-2.39969e-19
-1.95601e-19
-2.48319e-19
-2.12944e-19
-2.33741e-19
-2.94028e-19
-2.81581e-19
-2.28965e-19
-2.24645e-19
-2.45892e-19
-2.39645e-19
-3.03573e-19
-2.50471e-19
-2.80202e-19
-2.95712e-19
-1.90588e-19
-2.45022e-19
-2.00786e-19
-2.30595e-19
-2.08742e-19
-1.73099e-19
-2.73402e-19
-2.40528e-19
-1.98402e-19
-1.77484e-19
-2.08989e-19
-1.74017e-19
-2.50904e-19
-2.25812e-19
-1.91243e-19
-2.5242e-19
-1.9811e-19
-1.74779e-19
-1.64658e-19
-1.49301e-19
-2.10715e-19
-2.11337e-19
-2.51645e-19
-2.27052e-19
-1.85054e-19
-1.25641e-19
-2.19822e-19
-1.49136e-19
-1.97489e-19
-1.96383e-19
-2.07845e-19
-2.95045e-19
-2.12639e-19
-1.92046e-19
-2.32331e-19
-2.42085e-19
-2.93182e-19
-2.93042e-19
-1.85914e-19
-1.89576e-19
-3.03922e-19
-2.35143e-19
-2.10262e-19
-1.98864e-19
-2.22589e-19
-1.76898e-19
-1.50335e-19
-1.66627e-19
-2.09087e-19
-1.75888e-19
-2.1454e-19
-2.29617e-19
-2.08474e-19
-2.00357e-19
-2.24882e-19
-2.0199e-19
-2.23607e-19
-2.02044e-19
-1.64351e-19
-2.77074e-19
-1.86649e-19
-1.74977e-19
-2.1388e-19
-1.54598e-19
-2.82288e-19
-2.47865e-19
-2.19224e-19
-2.3294e-19
-2.06232e-19
-1.82361e-19
-1.99405e-19
-3.07704e-19
-2.17357e-19
-2.24028e-19
-1.73953e-19
-1.83924e-19
-2.10719e-19
-2.75348e-19
-2.13273e-19
-2.29305e-19
-2.60418e-19
-2.81633e-19
-2.10801e-19
-2.04738e-19
-2.64995e-19
-2.76011e-19
-2.69775e-19
-2.0777e-19
-2.64304e-19
-2.70573e-19
-2.8641e-19
-2.54183e-19
-2.39628e-19
-2.75919e-19
-1.94754e-19
-1.9647e-19
-1.93612e-19
-1.94852e-19
-1.95601e-19
-2.27927e-19
-3.19756e-19
-2.42306e-19
-2.35357e-19
-1.81041e-19
-2.16981e-19
-1.90318e-19
-1.79333e-19
-1.97053e-19
-2.22399e-19
-2.21877e-19
-1.88807e-19
-2.92075e-19
-1.33526e-19
-1.53681e-19
-1.6615e-19
-2.06162e-19
-1.48764e-19
-1.9514e-19
-2.31678e-19
-2.61677e-19
-1.73185e-19
-2.67857e-19
-1.53948e-19
-1.54705e-19
-2.40115e-19
-1.86867e-19
-4.95281e-19
-3.00431e-19
-5.06884e-19
-4.89327e-19
-3.05147e-19
-3.29808e-19
-3.36592e-19
-2.88973e-19
-3.33726e-19
-3.24569e-19
-3.94886e-19
-4.6103e-19
-3.94739e-19
-3.32487e-19
-3.73733e-19
-1.96908e-19
-2.69868e-19
-3.01733e-19
-3.55566e-19
-3.25589e-19
-3.58187e-19
-4.2551e-19
-4.20826e-19
-2.90712e-19
-3.2242e-19
-3.37706e-19
-3.98743e-19
-5.25607e-19
-2.85058e-19
-4.58538e-19
-3.96763e-19
-4.00322e-19
-3.96557e-19
-3.26123e-19
-2.78126e-19
-2.47343e-19
-4.906e-19
-4.33169e-19
-3.63636e-19
-4.19566e-19
-2.9636e-19
-2.85524e-19
-4.38246e-19
-2.72058e-19
-3.98141e-19
-3.38323e-19
-3.30401e-19
-3.72417e-19
-3.7627e-19
-4.67994e-19
-4.03909e-19
-3.89492e-19
-3.74657e-19
-3.27183e-19
-3.72675e-19
-4.01932e-19
-3.37135e-19
-3.97874e-19
-3.59147e-19
-3.4867e-19
-4.06899e-19
-3.29418e-19
-4.28025e-19
-5.566e-19
-3.54715e-19
-3.23345e-19
-4.80391e-19
-3.59418e-19
-3.93958e-19
-3.91405e-19
-3.77374e-19
-3.57385e-19
-2.34431e-19
-3.66965e-19
-5.42687e-19
-4.13045e-19
-3.89792e-19
-2.85426e-19
-3.38229e-19
-5.44757e-19
-4.57778e-19
-4.57922e-19
-4.20747e-19
-4.76315e-19
-3.3096e-19
-3.58667e-19
-4.76676e-19
-3.64692e-19
-3.2248e-19
-2.52347e-19
-3.57803e-19
-3.5077e-19
-3.16319e-19
-4.00303e-19
-2.60838e-19
-3.58458e-19
-3.27596e-19
-4.36242e-19
-3.05733e-19
-3.62182e-19
-4.86494e-19
-4.86426e-19
-3.94194e-19
-3.17334e-19
-3.24488e-19
-3.27169e-19
-3.50199e-19
-4.32099e-19
-3.28302e-19
-4.40956e-19
-3.43045e-19
-4.86046e-19
-4.28301e-19
-4.56657e-19
-3.90115e-19
-3.96788e-19
-4.06192e-19
-4.50434e-19
-4.81868e-19
-5.32549e-19
-5.1584e-19
-4.35531e-19
-4.01973e-19
-4.33806e-19
-2.68801e-19
-3.66822e-19
-4.8002e-19
-4.27818e-19
-4.14703e-19
-3.61985e-19
-4.4046e-19
-2.48557e-19
-3.91132e-19
-3.80587e-19
-3.42637e-19
-4.85902e-19
-3.90162e-19
-5.35819e-19
-3.19884e-19
-3.1412e-19
-1.73179e-19
-2.61712e-19
-3.33136e-19
-3.05876e-19
-3.21328e-19
-5.42674e-19
-3.28991e-19
-4.63056e-19
-4.2737e-19
-3.16554e-19
-2.79966e-19
-4.73833e-19
-3.98358e-19
-4.78818e-19
-4.4067e-19
-4.6741e-19
-3.59977e-19
-4.24181e-19
-3.38165e-19
-2.85699e-19
-2.78728e-19
-2.75103e-19
-3.81402e-19
-3.63792e-19
-2.77553e-19
-3.85635e-19
-3.1593e-19
-4.51546e-19
-4.13505e-19
-3.18197e-19
-4.68858e-19
-4.97798e-19
-5.50108e-19
-3.26543e-19
-4.38596e-19
-3.73576e-19
-3.20205e-19
-3.84225e-19
-4.35709e-19
-3.17099e-19
-2.6678e-19
-3.55286e-19
-3.28078e-19
-3.41479e-19
-3.79588e-19
-3.61756e-19
-3.35683e-19
-3.59227e-19
-4.05098e-19
-2.92823e-19
-3.74187e-19
-3.05638e-19
-2.72462e-19
-3.84705e-19
-4.60544e-19
-4.4079e-19
-3.98796e-19
-3.77878e-19
-3.87481e-19
-3.80199e-19
-3.31619e-19
-4.06026e-19
-2.51193e-19
-3.15386e-19
-3.48146e-19
-3.37022e-19
-3.69578e-19
-4.66226e-19
-3.94003e-19
-3.53636e-19
-2.82157e-19
-4.08812e-19
-3.82881e-19
-3.2289e-19
-5.10903e-19
-4.24104e-19
-3.76987e-19
-3.97899e-19
-4.0969e-19
-3.71901e-19
-3.96697e-19
-3.81617e-19
-4.11904e-19
-3.29744e-19
-3.80223e-19
-4.31465e-19
-3.52422e-19
-4.45496e-19
-4.82789e-19
-3.2469e-19
-3.60855e-19
-3.45114e-19
-4.24717e-19
-4.15582e-19
-4.15498e-19
-3.42753e-19
-2.89606e-19
-3.72359e-19
-3.94057e-19
-4.68063e-19
-5.56934e-19
-3.92178e-19
-2.49013e-19
-3.89986e-19
-4.5057e-19
-3.23965e-19
-2.97311e-19
-3.29209e-19
-2.73346e-19
-3.42849e-19
-4.1153e-19
-3.46089e-19
-4.34691e-19
-2.96352e-19
-4.1646e-19
-4.48917e-19
-1.09305e-18
-5.5896e-19
-5.69666e-19
-5.9116e-19
-5.62169e-19
-5.30021e-19
-8.91565e-19
-6.4141e-19
-5.40593e-19
-6.26285e-19
-6.51968e-19
-5.77136e-19
-6.31429e-19
-5.38044e-19
-8.5089e-19
-5.28585e-19
-5.61566e-19
-6.47549e-19
-7.28675e-19
-5.0877e-19
-6.57029e-19
-6.16971e-19
-6.47544e-19
-7.94599e-19
-7.58525e-19
-6.95766e-19
-5.89745e-19
-5.27518e-19
-7.82295e-19
-8.48982e-19
-7.06671e-19
-6.32127e-19
-6.23715e-19
-7.3064e-19
-6.63513e-19
-7.68687e-19
-8.33498e-19
-7.5268e-19
-7.41874e-19
-7.2241e-19
-5.93267e-19
-7.10637e-19
-7.91585e-19
-1.02707e-18
-7.08853e-19
-3.71428e-19
-7.34448e-19
-6.27944e-19
-8.01371e-19
-9.75828e-19
-7.31005e-19
-5.16103e-19
-9.89825e-19
-7.41345e-19
-8.43165e-19
-6.95272e-19
-8.6593e-19
-6.90402e-19
-5.74722e-19
-5.60042e-19
-4.4905e-19
-7.50545e-19
-6.59963e-19
-5.51411e-19
-7.0623e-19
-4.91102e-19
-7.79939e-19
-5.67321e-19
-4.93651e-19
-6.95898e-19
-4.18324e-19
-7.48006e-19
-6.06562e-19
-5.99413e-19
-7.3519e-19
-4.83941e-19
-6.14844e-19
-5.77658e-19
-6.59102e-19
-8.40461e-19
-8.44688e-19
-9.03018e-19
-5.39779e-19
-6.22813e-19
-4.80994e-19
-8.50572e-19
-6.52282e-19
-7.13067e-19
-6.36143e-19
-6.00104e-19
-9.03567e-19
-6.43217e-19
-4.96907e-19
-8.15272e-19
-7.39924e-19
-4.66304e-19
-4.11228e-19
-7.30282e-19
-5.95911e-19
-6.96718e-19
-8.56874e-19
-6.91886e-19
-6.51419e-19
-6.62771e-19
-6.70269e-19
-7.22099e-19
-8.27905e-19
-5.15037e-19
-5.42635e-19
-5.37474e-19
-4.83919e-19
-7.05408e-19
-9.38205e-19
-7.78347e-19
-7.90672e-19
-5.95297e-19
-6.6537e-19
-8.65929e-19
-7.47485e-19
-6.08413e-19
-6.54264e-19
-5.80183e-19
-6.50396e-19
-7.16428e-19
-6.12158e-19
-4.70925e-19
-4.4532e-19
-5.05911e-19
-6.61655e-19
-6.37108e-19
-6.96532e-19
-8.5812e-19
-9.62418e-19
-6.57363e-19
-1.01624e-18
-7.66556e-19
-4.29469e-19
-6.54883e-19
-8.03203e-19
-6.55805e-19
-5.29614e-19
-7.02295e-19
-7.435e-19
-6.34526e-19
-7.40954e-19
-5.79406e-19
-8.1272e-19
-8.45742e-19
-7.55712e-19
-7.00722e-19
-6.23229e-19
-5.30174e-19
-7.50262e-19
-8.40548e-19
-5.12043e-19
-7.81424e-19
-7.77787e-19
-7.87203e-19
-5.73194e-19
-5.77857e-19
-8.78716e-19
-6.48113e-19
-6.2749e-19
-7.30895e-19
-8.46233e-19
-8.27559e-19
-8.50572e-19
-7.33104e-19
-7.29436e-19
-8.55928e-19
-6.64906e-19
-8.93035e-19
-8.17803e-19
-6.33949e-19
-4.72371e-19
-8.00905e-19
-6.73656e-19
-4.97589e-19
-4.54273e-19
-6.38398e-19
-4.99259e-19
-7.02121e-19
-5.96857e-19
-9.95012e-19
-8.91718e-19
-7.13819e-19
-8.35802e-19
-9.18468e-19
-7.41253e-19
-7.23645e-19
-7.60693e-19
-6.19526e-19
-6.71476e-19
-5.79149e-19
-4.46369e-19
-7.66967e-19
-6.5978e-19
-9.58904e-19
-4.85483e-19
-7.20269e-19
-8.2179e-19
-7.31992e-19
-8.76644e-19
-7.23673e-19
-5.44016e-19
-7.33792e-19
-7.05784e-19
-9.43971e-19
-6.31113e-19
-7.62009e-19
-7.40689e-19
-6.28088e-19
-8.53682e-19
-6.48097e-19
-8.0208e-19
-6.04285e-19
-7.84419e-19
-5.99179e-19
-8.41537e-19
-8.16352e-19
-6.84579e-19
-5.68752e-19
-8.17628e-19
-6.7254e-19
-6.81965e-19
-5.76264e-19
-5.16187e-19
-5.79425e-19
-5.00633e-19
-9.47625e-19
-7.45392e-19
-6.43031e-19
-6.05651e-19
-6.06901e-19
-5.88461e-19
-6.9789e-19
-9.11414e-19
-5.75499e-19
-8.81811e-19
-8.84068e-19
-5.05325e-19
-5.40296e-19
-5.97269e-19
-7.23533e-19
-6.02058e-19
-6.03462e-19
-6.73769e-19
-6.39689e-19
-7.20117e-19
-8.79709e-19
-6.90942e-19
-5.09878e-19
-5.49006e-19
-6.98636e-19
-5.82304e-19
-7.60222e-19
-1.72795e-18
-1.38805e-18
-6.75613e-19
-1.25672e-18
-1.47737e-18
-1.50617e-18
-1.07455e-18
-1.2394e-18
-1.11366e-18
-1.33917e-18
-1.40436e-18
-1.48511e-18
-1.01175e-18
-1.65176e-18
-2.41367e-18
-1.59418e-18
-1.38838e-18
-1.91165e-18
-1.15677e-18
-1.23832e-18
-1.41677e-18
-1.21775e-18
-1.32912e-18
-9.60198e-19
-1.29225e-18
-1.38794e-18
-1.35015e-18
-1.26421e-18
-1.26192e-18
-1.66837e-18
-1.73889e-18
-1.38956e-18
-9.13446e-19
-1.33114e-18
-1.53139e-18
-9.7311e-19
-7.59477e-19
-9.66958e-19
-1.11005e-18
-1.19182e-18
-1.48659e-18
-1.26137e-18
-1.20519e-18
-1.40129e-18
-9.61607e-19
-1.28609e-18
-1.24601e-18
-1.33312e-18
-1.25204e-18
-1.1183e-18
-1.21649e-18
-1.19914e-18
-1.63552e-18
-1.42713e-18
-1.18751e-18
-1.24802e-18
-1.25944e-18
-1.38459e-18
-1.32903e-18
-9.48688e-19
-5.99949e-19
-9.81581e-19
-1.14943e-18
-1.13262e-18
-1.03219e-18
-8.49481e-19
-9.19953e-19
-1.30489e-18
-1.21756e-18
-8.27095e-19
-1.25256e-18
-1.08558e-18
-1.30196e-18
-1.07926e-18
-1.26692e-18
-1.15359e-18
-1.44189e-18
-1.46796e-18
-1.76108e-18
-1.53456e-18
-8.93109e-19
-1.75297e-18
-1.23032e-18
-1.17215e-18
-1.72573e-18
-1.44811e-18
-1.38463e-18
-1.13365e-18
-1.25526e-18
-1.18064e-18
-1.08131e-18
-1.36794e-18
-1.26352e-18
-1.45981e-18
-1.27378e-18
-1.38878e-18
-9.24925e-19
-9.75852e-19
-1.22063e-18
-1.60235e-18
-1.31241e-18
-1.11668e-18
-1.25951e-18
-1.08467e-18
-7.89539e-19
-1.33238e-18
-1.18512e-18
-1.18491e-18
-1.39714e-18
-1.28045e-18
-1.1476e-18
-1.20249e-18
-1.2681e-18
-1.09281e-18
-1.21631e-18
-1.21332e-18
-1.32357e-18
-1.06449e-18
-1.21982e-18
-1.26806e-18
-1.08398e-18
-1.5441e-18
-1.43376e-18
-1.64421e-18
-1.14413e-18
-1.04402e-18
-1.24973e-18
-1.24414e-18
-1.29264e-18
-1.22783e-18
-1.35996e-18
-1.227e-18
-1.02279e-18
-1.05199e-18
-1.68669e-18
-1.09349e-18
-1.25117e-18
-1.29947e-18
-8.81461e-19
-1.18447e-18
-8.78866e-19
-1.05556e-18
-1.2968e-18
-1.75661e-18
-1.63308e-18
-1.68171e-18
-1.74977e-18
-1.30711e-18
-1.72297e-18
-9.36985e-19
-1.72034e-18
-1.03059e-18
-1.55919e-18
-1.07497e-18
-1.07786e-18
-1.17973e-18
-8.77157e-19
-1.4513e-18
-8.97005e-19
-1.53753e-18
-1.118e-18
-1.16104e-18
-1.2838e-18
-1.47656e-18
-8.94234e-19
-1.46471e-18
-1.11059e-18
-8.2505e-19
-1.39805e-18
-1.10465e-18
-1.46366e-18
-1.6829e-18
-1.65214e-18
-1.5097e-18
-1.24961e-18
-1.37156e-18
-1.15249e-18
-7.53041e-19
-1.04256e-18
-1.27571e-18
-1.08246e-18
-1.67984e-18
-1.10876e-18
-1.41563e-18
-1.46725e-18
-9.86478e-19
-1.07691e-18
-1.18502e-18
-8.21335e-19
-1.35783e-18
-1.1501e-18
-1.51989e-18
-1.87247e-18
-1.35432e-18
-1.52529e-18
-1.18193e-18
-1.3576e-18
-1.07819e-18
-1.2708e-18
-1.58307e-18
-1.00837e-18
-1.17191e-18
-1.04945e-18
-1.90545e-18
-1.43599e-18
-1.32265e-18
-1.77126e-18
-1.67871e-18
-1.78359e-18
-1.49048e-18
-1.02377e-18
-1.50535e-18
-1.23658e-18
-1.25045e-18
-1.85961e-18
-1.39136e-18
-1.09813e-18
-1.23794e-18
-1.60728e-18
-1.20945e-18
-1.40325e-18
-8.91753e-19
-1.26873e-18
-1.38465e-18
-1.2519e-18
-1.1381e-18
-9.8774e-19
-1.4242e-18
-1.72528e-18
-1.58559e-18
-1.56316e-18
-1.40518e-18
-1.30808e-18
-1.26459e-18
-1.22033e-18
-1.0518e-18
-1.04778e-18
-1.22434e-18
-8.58716e-19
-1.42274e-18
-8.87561e-19
-1.78103e-18
-1.33519e-18
-1.21741e-18
-9.91984e-19
-9.3041e-19
-1.19208e-18
-1.45991e-18
-1.23309e-18
-1.68513e-18
-1.09469e-18
-9.86026e-19
-1.29429e-18
-1.41689e-18
-9.23589e-19
-1.17706e-18
-3.33368e-18
-2.53624e-18
-2.24834e-18
-1.62547e-18
-2.02101e-18
-2.90071e-18
-2.55542e-18
-1.93771e-18
-3.76944e-18
-2.41034e-18
-2.66578e-18
-2.47308e-18
-1.70607e-18
-1.95008e-18
-2.20938e-18
-2.32471e-18
-3.12782e-18
-2.68825e-18
-1.93706e-18
-2.21812e-18
-1.9209e-18
-2.16141e-18
-2.42633e-18
-2.60395e-18
-1.68854e-18
-1.85823e-18
-2.71647e-18
-1.98083e-18
-1.90336e-18
-2.1088e-18
-3.06048e-18
-2.61034e-18
-2.46362e-18
-1.63684e-18
-2.46443e-18
-3.03251e-18
-2.61711e-18
-1.99589e-18
-2.67538e-18
-2.31529e-18
-2.13804e-18
-2.44246e-18
-2.93773e-18
-2.35418e-18
-2.94123e-18
-2.54316e-18
-2.02035e-18
-2.25053e-18
-1.94172e-18
-2.09131e-18
-1.73621e-18
-2.43535e-18
-2.96965e-18
-2.23196e-18
-2.34452e-18
-1.74421e-18
-2.38807e-18
-2.57895e-18
-2.20501e-18
-2.89059e-18
-1.92598e-18
-2.17308e-18
-2.38844e-18
-2.37019e-18
-1.98349e-18
-1.82935e-18
-2.56214e-18
-2.28786e-18
-2.90419e-18
-1.78035e-18
-1.34557e-18
-1.83208e-18
-2.8503e-18
-2.71768e-18
-1.75464e-18
-1.9819e-18
-2.39578e-18
-2.52862e-18
-2.42474e-18
-2.41905e-18
-2.57848e-18
-2.67032e-18
-1.86173e-18
-1.78559e-18
-2.97899e-18
-2.46418e-18
-2.29601e-18
-1.73356e-18
-1.71877e-18
-2.85168e-18
-1.92877e-18
-2.10232e-18
-2.297e-18
-1.94655e-18
-2.85013e-18
-1.81343e-18
-2.82017e-18
-2.38948e-18
-2.80495e-18
-3.16111e-18
-3.35615e-18
-1.97635e-18
-2.79227e-18
-3.37116e-18
-2.92065e-18
-2.1292e-18
-2.5238e-18
-2.25146e-18
-2.59088e-18
-1.66544e-18
-2.44682e-18
-1.98454e-18
-2.70168e-18
-2.78171e-18
-2.53905e-18
-2.27694e-18
-2.85795e-18
-2.70462e-18
-2.57655e-18
-2.7574e-18
-2.94386e-18
-2.53359e-18
-2.83219e-18
-2.17592e-18
-1.87058e-18
-1.91652e-18
-1.928e-18
-2.52656e-18
-3.56494e-18
-2.01001e-18
-1.89096e-18
-2.55921e-18
-2.40696e-18
-2.48854e-18
-2.64083e-18
-2.08833e-18
-2.19612e-18
-2.18644e-18
-2.08016e-18
-2.15232e-18
-2.50038e-18
-1.59152e-18
-2.23412e-18
-2.72002e-18
-2.75334e-18
-2.2875e-18
-2.77462e-18
-2.23549e-18
-2.07493e-18
-2.14495e-18
-2.34964e-18
-1.80556e-18
-2.0022e-18
-2.77851e-18
-2.83036e-18
-2.00429e-18
-1.90154e-18
-3.09159e-18
-1.88809e-18
-2.03244e-18
-2.84783e-18
-2.1993e-18
-2.10125e-18
-2.77945e-18
-2.38246e-18
-2.37889e-18
-2.7218e-18
-2.58901e-18
-1.73853e-18
-2.38595e-18
-2.85896e-18
-2.13688e-18
-2.01442e-18
-2.03659e-18
-2.58134e-18
-3.09716e-18
-1.64573e-18
-1.92397e-18
-2.41035e-18
-2.18987e-18
-2.52885e-18
-2.05537e-18
-2.07679e-18
-1.42234e-18
-2.58537e-18
-2.42936e-18
-2.51953e-18
-2.34824e-18
-1.77589e-18
-1.78162e-18
-2.26863e-18
-2.36683e-18
-1.89699e-18
-2.08863e-18
-1.90089e-18
-1.88731e-18
-2.11211e-18
-2.57244e-18
-2.75564e-18
-2.50073e-18
-2.16557e-18
-3.10405e-18
-1.84714e-18
-1.93893e-18
-2.36179e-18
-2.21896e-18
-2.65913e-18
-3.15495e-18
-2.35595e-18
-3.7063e-18
-1.98284e-18
-2.96849e-18
-3.08209e-18
-2.49658e-18
-2.48907e-18
-2.58592e-18
-2.83301e-18
-2.08366e-18
-2.766e-18
-2.95269e-18
-1.91879e-18
-2.41912e-18
-1.91777e-18
-2.43351e-18
-2.72152e-18
-2.08359e-18
-2.15249e-18
-2.52766e-18
-2.56799e-18
-2.27525e-18
-2.34351e-18
-2.93021e-18
-2.51095e-18
-2.1905e-18
-1.32118e-18
-1.71869e-18
-2.7356e-18
-1.90969e-18
-2.32678e-18
-2.44433e-18
-1.82858e-18
-3.08461e-18
-2.00624e-18
-2.12396e-18
-2.20084e-18
-2.28348e-18
-1.58915e-18
-2.61623e-18
-2.36044e-18
-2.59749e-18
-2.50463e-18
-1.98912e-18
-2.99199e-18
-3.57244e-18
-3.13968e-18
-2.92295e-18
-6.78239e-18
-4.21876e-18
-5.28865e-18
-3.24638e-18
-2.74387e-18
-4.3273e-18
-4.43255e-18
-4.11442e-18
-5.74697e-18
-4.57287e-18
-5.78365e-18
-6.26654e-18
-5.97488e-18
-4.87228e-18
-4.78152e-18
-5.4903e-18
-4.38473e-18
-2.98173e-18
-4.38122e-18
-3.09881e-18
-3.8029e-18
-3.86207e-18
-4.44126e-18
-6.57214e-18
-3.94803e-18
-5.94962e-18
-4.44457e-18
-3.65847e-18
-3.12925e-18
-3.52989e-18
-4.98482e-18
-4.26947e-18
-3.66407e-18
-3.60901e-18
-3.84635e-18
-5.5723e-18
-4.83647e-18
-4.65922e-18
-4.46924e-18
-5.18047e-18
-4.07071e-18
-4.42504e-18
-3.97971e-18
-3.36726e-18
-5.92403e-18
-3.79932e-18
-3.50011e-18
-4.47591e-18
-4.16875e-18
-3.36819e-18
-3.85527e-18
-5.02479e-18
-4.00316e-18
-4.98662e-18
-4.90768e-18
-4.22544e-18
-4.03528e-18
-3.52939e-18
-4.02381e-18
-6.22045e-18
-4.66275e-18
-4.65851e-18
-5.36397e-18
-4.71318e-18
-5.08455e-18
-3.78249e-18
-3.40554e-18
-2.93183e-18
-4.39499e-18
-4.29013e-18
-4.87732e-18
-4.37374e-18
-3.04868e-18
-3.68265e-18
-5.06054e-18
-4.16614e-18
-4.43959e-18
-4.90953e-18
-5.5758e-18
-3.58486e-18
-3.13788e-18
-3.97294e-18
-3.40461e-18
-3.58899e-18
-4.47923e-18
-2.91624e-18
-5.20269e-18
-4.42327e-18
-3.80692e-18
-4.768e-18
-3.77103e-18
-4.37932e-18
-3.79489e-18
-3.31513e-18
-5.32715e-18
-4.14685e-18
-3.67555e-18
-4.66716e-18
-3.86786e-18
-4.48305e-18
-7.32211e-18
-4.78482e-18
-6.28445e-18
-5.37933e-18
-4.96071e-18
-4.93954e-18
-4.38013e-18
-3.5539e-18
-4.04439e-18
-4.69209e-18
-4.05658e-18
-4.61037e-18
-4.61193e-18
-3.67251e-18
-2.98817e-18
-4.13161e-18
-4.04931e-18
-4.09619e-18
-5.23141e-18
-5.40903e-18
-5.00901e-18
-3.47859e-18
-4.3331e-18
-3.38597e-18
-3.95199e-18
-3.37948e-18
-4.63175e-18
-4.76897e-18
-4.24082e-18
-4.14217e-18
-3.70126e-18
-5.62389e-18
-5.08639e-18
-3.82298e-18
-4.31273e-18
-4.4858e-18
-5.10793e-18
-4.95355e-18
-5.01282e-18
-5.26227e-18
-4.98136e-18
-3.81803e-18
-4.12464e-18
-4.92766e-18
-4.63301e-18
-3.65918e-18
-4.74003e-18
-2.89537e-18
-4.37157e-18
-5.19417e-18
-3.48003e-18
-2.75149e-18
-3.53293e-18
-4.35278e-18
-3.96956e-18
-4.04766e-18
-3.24584e-18
-3.44816e-18
-3.81807e-18
-3.71134e-18
-4.60595e-18
-3.81311e-18
-6.06922e-18
-4.38776e-18
-4.4671e-18
-4.70512e-18
-4.48996e-18
-3.37735e-18
-5.7427e-18
-4.18341e-18
-4.3437e-18
-4.64502e-18
-4.96616e-18
-3.64515e-18
-3.53175e-18
-3.42728e-18
-2.97934e-18
-2.76466e-18
-2.75678e-18
-4.1496e-18
-3.59765e-18
-3.44976e-18
-4.5164e-18
-3.64533e-18
-4.54609e-18
-5.02677e-18
-3.27175e-18
-6.40113e-18
-5.58373e-18
-5.33209e-18
-5.19695e-18
-5.55125e-18
-4.16964e-18
-5.03851e-18
-5.37203e-18
-4.44327e-18
-6.04079e-18
-4.3303e-18
-5.41094e-18
-4.18173e-18
-4.90231e-18
-4.16604e-18
-3.85069e-18
-3.95587e-18
-3.96471e-18
-4.25546e-18
-3.73306e-18
-6.43434e-18
-4.37336e-18
-5.48068e-18
-5.83443e-18
-4.23561e-18
-4.79041e-18
-4.63491e-18
-3.52251e-18
-3.409e-18
-4.61057e-18
-4.45364e-18
-5.29417e-18
-4.69392e-18
-3.473e-18
-5.26392e-18
-4.14955e-18
-4.06367e-18
-4.31166e-18
-4.59478e-18
-4.16862e-18
-3.48372e-18
-3.85901e-18
-4.10019e-18
-3.50321e-18
-5.22127e-18
-4.03061e-18
-3.19602e-18
-3.60381e-18
-3.19736e-18
-5.92979e-18
-3.44308e-18
-4.65436e-18
-5.22493e-18
-2.78403e-18
-4.00583e-18
-6.63803e-18
-5.51732e-18
-4.38768e-18
-5.4947e-18
-3.58434e-18
-3.73399e-18
-3.04723e-18
-4.50655e-18
-5.7312e-18
-4.65086e-18
-4.17923e-18
-2.94087e-18
-5.37693e-18
-4.56578e-18
-9.83018e-18
-6.91295e-18
-7.13616e-18
-8.68949e-18
-8.53053e-18
-8.50992e-18
-1.0246e-17
-9.31812e-18
-8.46032e-18
-8.83698e-18
-8.26254e-18
-1.09894e-17
-8.07352e-18
-9.89473e-18
-7.62735e-18
-8.41247e-18
-6.5504e-18
-1.00772e-17
-1.05061e-17
-1.18527e-17
-1.01149e-17
-1.05646e-17
-9.89412e-18
-6.55332e-18
-8.91077e-18
-8.31693e-18
-8.74256e-18
-6.64936e-18
-7.72007e-18
-6.74073e-18
-1.02911e-17
-7.23454e-18
-7.02124e-18
-9.78381e-18
-8.38022e-18
-8.01186e-18
-8.62082e-18
-9.26647e-18
-7.76505e-18
-7.26261e-18
-8.07631e-18
-7.87506e-18
-6.45756e-18
-9.07776e-18
-9.77293e-18
-7.80088e-18
-5.5196e-18
-8.00673e-18
-9.71583e-18
-1.03803e-17
-1.08404e-17
-9.17097e-18
-8.25792e-18
-7.97557e-18
-1.0773e-17
-7.32036e-18
-7.64138e-18
-8.26009e-18
-1.06088e-17
-6.95931e-18
-7.5652e-18
-8.7297e-18
-6.98116e-18
-9.61031e-18
-9.92038e-18
-9.26473e-18
-8.94557e-18
-7.89165e-18
-8.46039e-18
-9.09813e-18
-7.2361e-18
-8.51358e-18
-7.80886e-18
-7.31178e-18
-9.06465e-18
-7.92829e-18
-7.88766e-18
-6.89176e-18
-1.01975e-17
-6.17849e-18
-8.0866e-18
-4.90741e-18
-7.38798e-18
-4.18438e-18
-8.25959e-18
-9.73874e-18
-7.20621e-18
-6.93933e-18
-8.09803e-18
-6.80222e-18
-9.31804e-18
-7.27966e-18
-9.05128e-18
-8.23104e-18
-9.01953e-18
-7.80113e-18
-9.13141e-18
-8.62874e-18
-9.29669e-18
-9.6439e-18
-9.05346e-18
-1.02005e-17
-9.28999e-18
-1.04457e-17
-1.07058e-17
-8.41835e-18
-1.19317e-17
-6.20594e-18
-8.04034e-18
-7.63058e-18
-9.80947e-18
-7.54764e-18
-1.08404e-17
-8.66181e-18
-8.60356e-18
-7.64843e-18
-8.31629e-18
-8.44524e-18
-9.08982e-18
-8.45902e-18
-1.20289e-17
-9.40378e-18
-8.81558e-18
-8.19727e-18
-8.87057e-18
-9.98757e-18
-8.78221e-18
-6.1483e-18
-8.21496e-18
-7.60706e-18
-7.73524e-18
-9.08855e-18
-7.17412e-18
-7.76332e-18
-7.89231e-18
-8.5565e-18
-1.06044e-17
-9.08336e-18
-8.53149e-18
-5.79922e-18
-9.22392e-18
-8.29161e-18
-7.58368e-18
-5.55318e-18
-1.01408e-17
-8.82726e-18
-5.60548e-18
-5.79181e-18
-9.09549e-18
-7.27345e-18
-6.77652e-18
-5.95184e-18
-5.34727e-18
-6.10511e-18
-6.46011e-18
-7.00904e-18
-9.03977e-18
-6.91159e-18
-7.75048e-18
-8.5859e-18
-6.7014e-18
-6.63888e-18
-8.98446e-18
-8.22483e-18
-9.05593e-18
-6.67917e-18
-8.34007e-18
-6.30638e-18
-9.28418e-18
-8.22763e-18
-1.05326e-17
-7.67683e-18
-8.75843e-18
-6.0677e-18
-6.96057e-18
-7.00556e-18
-6.78166e-18
-4.94012e-18
-6.78536e-18
-6.19816e-18
-7.83145e-18
-6.6335e-18
-7.98045e-18
-7.98873e-18
-7.98115e-18
-5.36622e-18
-6.48169e-18
-7.86061e-18
-7.98022e-18
-8.46031e-18
-1.20883e-17
-7.15915e-18
-7.21703e-18
-8.64463e-18
-8.98464e-18
-9.26227e-18
-1.0362e-17
-7.74938e-18
-9.05242e-18
-6.30095e-18
-8.43018e-18
-7.1279e-18
-5.8025e-18
-7.32241e-18
-5.7186e-18
-8.80245e-18
-1.14275e-17
-8.99494e-18
-9.66126e-18
-8.8059e-18
-7.82639e-18
-1.10049e-17
-7.69972e-18
-8.60976e-18
-6.27159e-18
-6.24803e-18
-7.04447e-18
-8.68156e-18
-8.80806e-18
-7.72136e-18
-8.31283e-18
-1.04683e-17
-9.46048e-18
-6.61365e-18
-8.06219e-18
-6.71828e-18
-6.07974e-18
-9.08502e-18
-9.1404e-18
-6.78635e-18
-6.95547e-18
-7.96052e-18
-5.69411e-18
-9.2591e-18
-1.08849e-17
-8.80957e-18
-9.64062e-18
-8.08768e-18
-6.38519e-18
-6.16115e-18
-7.55487e-18
-9.32275e-18
-9.30072e-18
-8.00157e-18
-5.47809e-18
-8.77117e-18
-6.65011e-18
-9.18805e-18
-6.75779e-18
-7.24182e-18
-4.91539e-18
-6.05663e-18
-8.09274e-18
-7.25657e-18
-9.83826e-18
-7.62339e-18
-2.32558e-17
-9.79575e-18
-1.44137e-17
-1.52849e-17
-1.80676e-17
-1.91693e-17
-1.79673e-17
-1.89171e-17
-2.36702e-17
-1.44905e-17
-1.57042e-17
-1.7216e-17
-1.84932e-17
-1.69797e-17
-1.28388e-17
-9.22243e-18
-1.48784e-17
-1.93673e-17
-1.42504e-17
-1.17553e-17
-1.03818e-17
-1.59902e-17
-1.52329e-17
-7.44849e-18
-1.32962e-17
-1.43447e-17
-1.79656e-17
-1.01901e-17
-1.35845e-17
-1.60897e-17
-1.55076e-17
-1.78739e-17
-1.56837e-17
-1.35264e-17
-1.76526e-17
-1.63024e-17
-1.76339e-17
-1.35474e-17
-1.32289e-17
-1.47966e-17
-1.47737e-17
-1.386e-17
-1.95441e-17
-1.57798e-17
-1.0737e-17
-1.3986e-17
-1.68155e-17
-2.0105e-17
-1.85858e-17
-1.61339e-17
-1.48277e-17
-1.51872e-17
-1.57784e-17
-1.89968e-17
-1.65044e-17
-1.54262e-17
-1.50143e-17
-1.62274e-17
-1.5143e-17
-1.45133e-17
-1.18678e-17
-1.66622e-17
-1.00085e-17
-1.71012e-17
-1.69924e-17
-1.3875e-17
-1.70664e-17
-1.25626e-17
-1.40744e-17
-1.7144e-17
-1.58627e-17
-1.43197e-17
-1.64145e-17
-1.57994e-17
-1.28762e-17
-1.72758e-17
-1.55423e-17
-1.66311e-17
-1.50219e-17
-1.14957e-17
-1.585e-17
-1.35213e-17
-1.34809e-17
-1.32848e-17
-1.39974e-17
-1.16129e-17
-1.12588e-17
-1.66239e-17
-1.57259e-17
-1.72797e-17
-1.53007e-17
-1.68111e-17
-9.21072e-18
-1.51503e-17
-1.33088e-17
-1.5976e-17
-1.48676e-17
-1.50086e-17
-1.31409e-17
-1.39526e-17
-1.6911e-17
-1.83993e-17
-1.5644e-17
-1.92212e-17
-1.26699e-17
-1.68752e-17
-9.9746e-18
-1.27991e-17
-1.48439e-17
-1.517e-17
-8.96801e-18
-1.25645e-17
-1.04141e-17
-1.32593e-17
-1.18852e-17
-1.16547e-17
-1.35253e-17
-1.23781e-17
-1.37036e-17
-1.3556e-17
-1.5234e-17
-8.59875e-18
-1.74387e-17
-1.76176e-17
-1.61789e-17
-1.63092e-17
-1.53191e-17
-1.82268e-17
-1.42486e-17
-1.65787e-17
-1.59102e-17
-1.70453e-17
-1.91335e-17
-1.9828e-17
-1.64451e-17
-1.13502e-17
-1.82241e-17
-9.34429e-18
-1.64856e-17
-1.32205e-17
-1.49871e-17
-1.35969e-17
-1.65242e-17
-1.44347e-17
-1.1747e-17
-1.79145e-17
-1.85692e-17
-1.6293e-17
-1.57608e-17
-1.61296e-17
-1.56542e-17
-1.04327e-17
-8.97073e-18
-1.76417e-17
-1.37898e-17
-1.56016e-17
-1.29467e-17
-1.70295e-17
-1.41777e-17
-1.4269e-17
-1.61585e-17
-1.76575e-17
-1.60424e-17
-1.54596e-17
-1.56928e-17
-1.7475e-17
-1.36706e-17
-1.58992e-17
-1.92762e-17
-1.82707e-17
-1.00191e-17
-1.52857e-17
-1.47728e-17
-1.68451e-17
-1.97304e-17
-1.61927e-17
-1.35931e-17
-1.41412e-17
-1.61266e-17
-1.51438e-17
-1.25221e-17
-1.95198e-17
-1.14152e-17
-1.3373e-17
-1.82655e-17
-1.52782e-17
-1.81661e-17
-1.01476e-17
-1.37469e-17
-1.16906e-17
-1.33265e-17
-1.76844e-17
-1.41798e-17
-1.15835e-17
-1.56414e-17
-1.62043e-17
-1.39496e-17
-1.00768e-17
-1.52176e-17
-1.19625e-17
-1.28474e-17
-1.86566e-17
-1.31625e-17
-1.53749e-17
-1.30177e-17
-1.44505e-17
-1.92458e-17
-1.58367e-17
-1.06954e-17
-1.66237e-17
-1.59075e-17
-1.37879e-17
-1.24768e-17
-1.74483e-17
-1.64072e-17
-1.53973e-17
-1.19875e-17
-1.47043e-17
-1.26165e-17
-1.20278e-17
-1.37501e-17
-1.59276e-17
-1.46576e-17
-1.1845e-17
-1.73096e-17
-1.5835e-17
-1.14015e-17
-1.6503e-17
-1.61885e-17
-1.40733e-17
-1.16764e-17
-1.54525e-17
-1.89475e-17
-1.50657e-17
-1.53894e-17
-1.65797e-17
-1.04012e-17
-1.19977e-17
-1.78253e-17
-1.61183e-17
-2.03481e-17
-1.59516e-17
-1.73696e-17
-1.55563e-17
-1.55765e-17
-1.48222e-17
-1.63225e-17
-1.44413e-17
-1.41542e-17
-1.85926e-17
-1.22389e-17
-1.95208e-17
-1.44112e-17
-1.09556e-17
-1.31874e-17
-1.60445e-17
-4.40516e-17
-3.73742e-17
-2.89849e-17
-2.78063e-17