# vtk DataFile Version 1.0
Electron Density - Current Sheet 
ASCII
DATASET STRUCTURED_POINTS
DIMENSIONS 256 128 1
ORIGIN 0 0 0
SPACING 0.15625 0.15625 1
POINT_DATA 32768
SCALARS rhoe float
LOOKUP_TABLE default
-2.58926e-19
-3.18374e-19
-3.70165e-19
-2.74532e-19
-2.90363e-19
-2.79833e-19
-3.34359e-19
-3.49617e-19
-3.79726e-19
-4.61042e-19
-3.05396e-19
-2.68985e-19
-2.94318e-19
-2.37217e-19
-3.86808e-19
-3.42668e-19
-4.05778e-19
-3.72281e-19
-3.43239e-19
-4.08958e-19
-3.32484e-19
-3.49382e-19
-3.63413e-19
-3.92837e-19
-3.71174e-19
-3.43363e-19
-4.13993e-19
-2.18199e-19
-3.757e-19
-2.77348e-19
-3.97273e-19
-2.75737e-19
-3.28733e-19
-3.56041e-19
-3.30563e-19
-3.34502e-19
-2.87176e-19
-4.08909e-19
-2.92664e-19
-2.43588e-19
-3.31223e-19
-3.04867e-19
-4.09375e-19
-3.51899e-19
-2.51312e-19
-3.13653e-19
-4.03468e-19
-3.9331e-19
-4.67157e-19
-4.4453e-19
-3.18049e-19
-2.64054e-19
-3.51507e-19
-3.15411e-19
-3.34857e-19
-4.95505e-19
-3.50732e-19
-3.19185e-19
-2.80046e-19
-3.19095e-19
-3.08059e-19
-3.19692e-19
-2.96689e-19
-3.46343e-19
-4.05393e-19
-2.65525e-19
-3.45197e-19
-3.64492e-19
-3.28712e-19
-3.1506e-19
-3.23429e-19
-4.32799e-19
-2.0428e-19
-3.67194e-19
-3.56628e-19
-3.73795e-19
-3.44528e-19
-3.34454e-19
-2.96071e-19
-2.7179e-19
-2.86594e-19
-3.25749e-19
-3.45208e-19
-2.78836e-19
-4.3428e-19
-3.5542e-19
-3.22578e-19
-3.24872e-19
-3.49748e-19
-3.10208e-19
-4.34788e-19
-2.95792e-19
-2.67144e-19
-2.6458e-19
-3.89212e-19
-3.13466e-19
-2.48791e-19
-3.87783e-19
-3.01012e-19
-2.59333e-19
-3.50378e-19
-3.48699e-19
-3.17348e-19
-3.38742e-19
-2.81192e-19
-3.98357e-19
-3.48206e-19
-3.10479e-19
-2.58495e-19
-3.71059e-19
-3.29988e-19
-3.18149e-19
-3.43231e-19
-2.78566e-19
-3.6665e-19
-3.10729e-19
-2.80847e-19
-3.08641e-19
-2.78809e-19
-3.68728e-19
-4.70256e-19
-2.87543e-19
-3.11145e-19
-2.59602e-19
-3.67416e-19
-3.18709e-19
-3.55567e-19
-3.5907e-19
-4.01827e-19
-3.13645e-19
-3.30063e-19
-3.4878e-19
-3.30247e-19
-4.9967e-19
-3.56456e-19
-3.41598e-19
-3.66266e-19
-3.96886e-19
-3.44513e-19
-4.19716e-19
-2.98558e-19
-4.16199e-19
-3.0991e-19
-2.78883e-19
-2.72403e-19
-3.23651e-19
-3.14637e-19
-3.57751e-19
-3.43522e-19
-3.58649e-19
-3.99724e-19
-2.66153e-19
-3.21564e-19
-3.98349e-19
-3.07224e-19
-3.7129e-19
-3.60011e-19
-3.59635e-19
-3.12456e-19
-2.50833e-19
-2.35509e-19
-3.68161e-19
-3.66723e-19
-2.77747e-19
-4.11065e-19
-3.84943e-19
-3.0897e-19
-3.3329e-19
-2.64153e-19
-3.3381e-19
-4.05406e-19
-3.26835e-19
-3.82878e-19
-3.73765e-19
-5.29234e-19
-4.17682e-19
-3.81388e-19
-3.12218e-19
-3.69562e-19
-2.89555e-19
-3.30086e-19
-3.89829e-19
-3.04256e-19
-2.88882e-19
-3.74612e-19
-2.86854e-19
-3.42588e-19
-3.04971e-19
-3.50805e-19
-3.76676e-19
-2.24666e-19
-3.41853e-19
-3.08999e-19
-3.15809e-19
-2.74912e-19
-3.13148e-19
-3.71687e-19
-2.64276e-19
-3.48433e-19
-2.63573e-19
-2.73626e-19
-2.76932e-19
-3.53769e-19
-2.44551e-19
-2.07928e-19
-3.53906e-19
-3.24305e-19
-2.96015e-19
-3.33586e-19
-4.02792e-19
-3.7438e-19
-3.40414e-19
-3.42397e-19
-3.65209e-19
-3.27289e-19
-3.37794e-19
-3.21552e-19
-2.91367e-19
-2.67098e-19
-3.37127e-19
-2.02352e-19
-3.58009e-19
-4.77306e-19
-3.26492e-19
-3.46076e-19
-3.00499e-19
-3.0774e-19
-3.75052e-19
-3.49032e-19
-3.80348e-19
-3.99939e-19
-3.74024e-19
-3.10259e-19
-3.61076e-19
-3.04675e-19
-2.79332e-19
-4.01737e-19
-2.59776e-19
-3.07828e-19
-2.391e-19
-2.87686e-19
-4.31226e-19
-3.23872e-19
-3.25564e-19
-2.90104e-19
-2.99673e-19
-4.2607e-19
-2.71232e-19
-3.7532e-19
-3.89935e-19
-3.119e-19
-4.697e-19
-2.93032e-19
-2.32554e-19
-2.64386e-19
-3.75775e-19
-5.08696e-19
-5.68264e-19
-5.35358e-19
-6.31648e-19
-5.96284e-19
-6.46774e-19
-5.17884e-19
-5.95386e-19
-5.4844e-19
-4.96323e-19
-5.44263e-19
-6.22702e-19
-6.84639e-19
-5.76284e-19
-6.70083e-19
-6.81612e-19
-6.6103e-19
-7.67927e-19
-6.70881e-19
-5.81114e-19
-6.5837e-19
-6.48123e-19
-5.75792e-19
-4.95508e-19
-6.43735e-19
-6.30044e-19
-6.54699e-19
-6.38756e-19
-6.41971e-19
-5.97952e-19
-6.01474e-19
-4.50975e-19
-5.76216e-19
-5.88865e-19
-5.54655e-19
-5.92257e-19
-5.57282e-19
-6.36653e-19
-6.79237e-19
-5.72948e-19
-6.27569e-19
-5.26596e-19
-6.48231e-19
-6.59294e-19
-6.0729e-19
-6.31747e-19
-6.7373e-19
-6.57162e-19
-5.49462e-19
-6.29424e-19
-5.18765e-19
-5.52822e-19
-5.90115e-19
-4.80614e-19
-6.32994e-19
-5.05128e-19
-6.10782e-19
-6.86297e-19
-5.40056e-19
-5.93797e-19
-6.24848e-19
-6.19661e-19
-5.098e-19
-6.36124e-19
-5.95725e-19
-5.92136e-19
-6.54935e-19
-6.04809e-19
-5.61856e-19
-6.69242e-19
-6.50118e-19
-7.0226e-19
-5.4324e-19
-7.29839e-19
-5.79888e-19
-5.59407e-19
-5.32903e-19
-5.53648e-19
-6.06818e-19
-5.17312e-19
-7.32187e-19
-5.49705e-19
-5.58115e-19
-5.35589e-19
-5.47096e-19
-6.46639e-19
-7.46266e-19
-5.83457e-19
-6.5965e-19
-5.83574e-19
-6.65485e-19
-5.94542e-19
-5.82171e-19
-5.32874e-19
-6.12494e-19
-6.30926e-19
-5.5386e-19
-5.67293e-19
-6.87264e-19
-7.50739e-19
-6.40224e-19
-6.30151e-19
-5.83874e-19
-6.36684e-19
-6.21814e-19
-6.4082e-19
-5.84737e-19
-6.48743e-19
-6.33743e-19
-5.96102e-19
-5.5737e-19
-6.55377e-19
-4.96757e-19
-6.21842e-19
-5.64091e-19
-7.25018e-19
-5.68462e-19
-5.63816e-19
-5.66366e-19
-5.16335e-19
-5.40437e-19
-5.83931e-19
-7.26957e-19
-5.44414e-19
-6.5302e-19
-5.60706e-19
-6.06898e-19
-5.3871e-19
-5.54771e-19
-5.93504e-19
-5.84448e-19
-4.79835e-19
-6.0055e-19
-6.70441e-19
-4.61358e-19
-4.36317e-19
-5.40432e-19
-7.09624e-19
-6.0293e-19
-6.27007e-19
-5.58058e-19
-6.187e-19
-6.22645e-19
-7.21892e-19
-6.26243e-19
-5.89154e-19
-6.2643e-19
-6.68529e-19
-6.38791e-19
-5.37416e-19
-6.72886e-19
-6.09921e-19
-6.31282e-19
-6.28033e-19
-5.38307e-19
-5.80119e-19
-6.16843e-19
-6.32167e-19
-5.12292e-19
-5.43422e-19
-4.7892e-19
-6.11324e-19
-6.37833e-19
-5.71634e-19
-6.36436e-19
-6.02602e-19
-5.99614e-19
-6.47842e-19
-4.68895e-19
-6.03263e-19
-6.77028e-19
-6.91088e-19
-6.81342e-19
-5.97065e-19
-5.4344e-19
-5.64318e-19
-5.38626e-19
-5.57737e-19
-7.04816e-19
-5.68873e-19
-5.94751e-19
-5.76723e-19
-5.92471e-19
-5.31852e-19
-5.47349e-19
-5.00233e-19
-4.90287e-19
-5.91889e-19
-5.31133e-19
-7.06776e-19
-5.42462e-19
-5.65402e-19
-5.80779e-19
-5.7956e-19
-6.52313e-19
-5.86535e-19
-4.78031e-19
-5.15897e-19
-5.37408e-19
-6.7202e-19
-5.47686e-19
-7.19028e-19
-6.8086e-19
-5.20028e-19
-5.5846e-19
-5.83851e-19
-4.85375e-19
-6.44727e-19
-5.84989e-19
-5.84319e-19
-6.02056e-19
-6.61366e-19
-5.53574e-19
-5.38865e-19
-5.79764e-19
-5.01332e-19
-6.34415e-19
-5.02658e-19
-6.22965e-19
-7.17398e-19
-5.68405e-19
-5.89857e-19
-6.95437e-19
-6.51044e-19
-5.99976e-19
-5.31378e-19
-6.75077e-19
-5.28353e-19
-5.72539e-19
-6.55431e-19
-5.9462e-19
-7.24078e-19
-5.6587e-19
-5.87117e-19
-5.89442e-19
-5.86068e-19
-6.6051e-19
-6.24028e-19
-6.13482e-19
-6.89728e-19
-5.78733e-19
-6.6546e-19
-5.91708e-19
-5.40452e-19
-5.93148e-19
-5.52429e-19
-6.23928e-19
-5.13727e-19
-6.86414e-19
-6.39553e-19
-5.07784e-19
-6.11892e-19
-5.29085e-19
-5.60146e-19
-6.34057e-19
-6.3114e-19
-1.18038e-18
-9.95e-19
-1.22766e-18
-1.18351e-18
-1.03522e-18
-1.06042e-18
-1.05854e-18
-1.06477e-18
-1.10704e-18
-9.82601e-19
-1.25382e-18
-1.18934e-18
-1.29826e-18
-1.0741e-18
-1.23382e-18
-1.09117e-18
-1.10488e-18
-1.29231e-18
-1.18237e-18
-1.1758e-18
-9.99181e-19
-1.22737e-18
-1.2768e-18
-1.07779e-18
-9.66581e-19
-1.22058e-18
-1.13464e-18
-1.23359e-18
-1.09741e-18
-1.10519e-18
-1.14215e-18
-1.08779e-18
-1.04832e-18
-1.13868e-18
-1.01413e-18
-1.13077e-18
-1.24086e-18
-1.1272e-18
-1.18669e-18
-1.12012e-18
-1.22409e-18
-1.07729e-18
-1.287e-18
-8.18658e-19
-1.13499e-18
-9.72689e-19
-1.24837e-18
-1.09265e-18
-1.29715e-18
-1.12936e-18
-1.20961e-18
-1.26037e-18
-1.15089e-18
-1.27931e-18
-1.24058e-18
-1.06733e-18
-1.07346e-18
-1.1874e-18
-1.20139e-18
-1.25212e-18
-1.15618e-18
-1.28405e-18
-1.14838e-18
-1.25892e-18
-1.00036e-18
-1.03884e-18
-1.14375e-18
-1.08548e-18
-9.53066e-19
-1.03522e-18
-1.08887e-18
-1.13398e-18
-8.31441e-19
-1.16523e-18
-1.32375e-18
-1.09245e-18
-9.63756e-19
-9.70324e-19
-1.06182e-18
-1.23296e-18
-1.00161e-18
-1.26379e-18
-9.91908e-19
-1.21897e-18
-1.0535e-18
-1.13473e-18
-1.25147e-18
-9.02028e-19
-1.39297e-18
-1.24161e-18
-1.06957e-18
-1.03297e-18
-1.12774e-18
-1.20186e-18
-1.18304e-18
-1.06647e-18
-9.09507e-19
-1.10614e-18
-1.10055e-18
-1.09113e-18
-1.11835e-18
-1.22399e-18
-1.12924e-18
-9.86693e-19
-1.00079e-18
-1.00724e-18
-1.12167e-18
-1.14259e-18
-1.23811e-18
-1.30638e-18
-1.05645e-18
-1.32034e-18
-1.3083e-18
-1.08832e-18
-1.16663e-18
-1.15749e-18
-1.10105e-18
-9.0611e-19
-1.03981e-18
-1.08675e-18
-1.13363e-18
-1.21301e-18
-1.17884e-18
-1.18981e-18
-1.20316e-18
-1.05415e-18
-1.08713e-18
-1.03779e-18
-1.11224e-18
-1.02278e-18
-1.21654e-18
-1.02729e-18
-1.07527e-18
-1.16862e-18
-1.13138e-18
-1.27882e-18
-1.12816e-18
-1.39409e-18
-1.20019e-18
-1.07087e-18
-9.72392e-19
-9.98892e-19
-9.6443e-19
-9.2198e-19
-1.16892e-18
-1.28139e-18
-1.17903e-18
-1.28298e-18
-1.14667e-18
-1.10349e-18
-1.05582e-18
-1.30391e-18
-1.00777e-18
-1.00185e-18
-1.03403e-18
-9.33691e-19
-1.17666e-18
-1.21355e-18
-1.05781e-18
-8.13898e-19
-1.01502e-18
-9.6421e-19
-1.29514e-18
-1.03878e-18
-1.2086e-18
-1.13358e-18
-1.00312e-18
-1.11704e-18
-9.73016e-19
-9.91523e-19
-1.18607e-18
-1.31322e-18
-1.45135e-18
-1.26539e-18
-1.1191e-18
-1.21316e-18
-1.32731e-18
-1.02573e-18
-1.23858e-18
-1.1771e-18
-1.25138e-18
-1.2561e-18
-1.12004e-18
-1.0654e-18
-1.31318e-18
-1.05208e-18
-1.08926e-18
-1.02753e-18
-1.38618e-18
-9.62875e-19
-1.00565e-18
-1.14019e-18
-1.18372e-18
-1.14978e-18
-1.30908e-18
-1.13166e-18
-1.19017e-18
-9.52857e-19
-8.27268e-19
-1.14386e-18
-1.14585e-18
-1.06714e-18
-1.02415e-18
-1.11501e-18
-1.11546e-18
-1.13027e-18
-1.07581e-18
-1.2331e-18
-1.01404e-18
-1.12728e-18
-1.12546e-18
-1.09791e-18
-1.0847e-18
-1.16612e-18
-1.06764e-18
-1.3056e-18
-1.01549e-18
-1.1147e-18
-1.15527e-18
-1.29774e-18
-1.0789e-18
-1.08599e-18
-1.15571e-18
-9.95462e-19
-1.15505e-18
-1.35485e-18
-1.19078e-18
-1.08478e-18
-1.20552e-18
-1.10434e-18
-1.01185e-18
-1.27588e-18
-1.15438e-18
-1.07655e-18
-1.01457e-18
-1.06341e-18
-1.07553e-18
-9.56874e-19
-1.14992e-18
-1.25225e-18
-1.29695e-18
-1.37238e-18
-8.77742e-19
-1.21276e-18
-1.33908e-18
-1.09691e-18
-1.03974e-18
-8.29353e-19
-1.26511e-18
-1.295e-18
-1.21183e-18
-1.15445e-18
-1.15367e-18
-9.03182e-19
-1.41657e-18
-1.31081e-18
-2.38878e-18
-1.89297e-18
-1.84493e-18
-1.93195e-18
-2.18098e-18
-1.79747e-18
-1.84425e-18
-1.65327e-18
-1.49431e-18
-1.70769e-18
-2.02482e-18
-2.08814e-18
-2.04665e-18
-1.88706e-18
-2.36932e-18
-2.19021e-18
-1.98181e-18
-2.51639e-18
-2.33843e-18
-1.84938e-18
-2.06871e-18
-1.99855e-18
-2.20602e-18
-2.01091e-18
-1.98688e-18
-2.04268e-18
-1.85651e-18
-2.05125e-18
-2.34431e-18
-2.3468e-18
-2.09837e-18
-2.0406e-18
-1.69813e-18
-1.8288e-18
-2.53876e-18
-2.14655e-18
-2.24297e-18
-2.52271e-18
-2.17431e-18
-2.5175e-18
-2.40694e-18
-1.81389e-18
-2.10294e-18
-2.19288e-18
-1.86286e-18
-1.77355e-18
-2.07117e-18
-2.048e-18
-2.3689e-18
-2.45896e-18
-2.01053e-18
-1.87074e-18
-2.55721e-18
-2.10094e-18
-2.01374e-18
-2.3196e-18
-2.49538e-18
-2.28854e-18
-1.95977e-18
-1.92027e-18
-1.8739e-18
-2.58565e-18
-2.15182e-18
-2.0258e-18
-1.9369e-18
-1.78531e-18
-2.38536e-18
-1.95468e-18
-2.56378e-18
-2.78396e-18
-1.81296e-18
-2.48718e-18
-2.25792e-18
-2.21565e-18
-2.13052e-18
-2.10275e-18
-1.84709e-18
-1.78752e-18
-2.08119e-18
-1.98292e-18
-2.22936e-18
-2.21813e-18
-2.04022e-18
-2.38067e-18
-1.82977e-18
-1.9916e-18
-2.23087e-18
-1.71756e-18
-1.78815e-18
-2.03506e-18
-1.90697e-18
-1.97291e-18
-1.80191e-18
-2.32408e-18
-1.88243e-18
-1.8414e-18
-1.9374e-18
-2.50736e-18
-2.05027e-18
-2.19937e-18
-2.11057e-18
-1.96522e-18
-1.66417e-18
-2.07356e-18
-2.10826e-18
-2.42201e-18
-2.3236e-18
-1.8753e-18
-1.69054e-18
-1.97351e-18
-1.78555e-18
-2.17668e-18
-2.34896e-18
-2.06782e-18
-2.58265e-18
-1.94759e-18
-1.98483e-18
-2.22459e-18
-1.89771e-18
-1.84257e-18
-2.11765e-18
-1.6583e-18
-1.95905e-18
-2.02626e-18
-2.08969e-18
-2.52687e-18
-2.0874e-18
-1.99287e-18
-1.99412e-18
-1.90241e-18
-2.0122e-18
-2.54279e-18
-2.05802e-18
-1.84273e-18
-2.39411e-18
-2.31927e-18
-2.23287e-18
-1.9145e-18
-2.07703e-18
-2.03106e-18
-1.96183e-18
-1.96059e-18
-2.44464e-18
-2.12702e-18
-1.91929e-18
-2.62019e-18
-2.17196e-18
-2.24796e-18
-2.28071e-18
-1.83549e-18
-2.46676e-18
-2.14746e-18
-2.45445e-18
-2.34883e-18
-2.42598e-18
-2.32957e-18
-2.24468e-18
-2.43179e-18
-2.03953e-18
-2.00087e-18
-2.1702e-18
-1.78106e-18
-1.99786e-18
-1.98603e-18
-2.31228e-18
-2.39071e-18
-2.11572e-18
-2.41231e-18
-1.79036e-18
-2.31622e-18
-2.25925e-18
-2.63928e-18
-2.28714e-18
-1.70084e-18
-2.0946e-18
-2.09973e-18
-2.62123e-18
-1.68707e-18
-2.1132e-18
-2.27599e-18
-2.05293e-18
-2.18021e-18
-2.24306e-18
-2.32039e-18
-2.24907e-18
-2.06537e-18
-2.49508e-18
-2.37348e-18
-2.2041e-18
-2.07521e-18
-2.04133e-18
-2.33428e-18
-2.35474e-18
-2.10463e-18
-2.19975e-18
-2.28198e-18
-2.2485e-18
-2.25815e-18
-1.78673e-18
-2.17047e-18
-2.21023e-18
-2.22858e-18
-1.94601e-18
-1.99415e-18
-1.94733e-18
-1.99366e-18
-2.01707e-18
-2.16189e-18
-1.80756e-18
-2.21807e-18
-2.01303e-18
-2.37021e-18
-2.4555e-18
-2.08806e-18
-2.13335e-18
-2.29636e-18
-2.08334e-18
-2.11496e-18
-2.40364e-18
-2.30895e-18
-2.0076e-18
-2.05756e-18
-2.17116e-18
-1.98396e-18
-1.9928e-18
-2.11072e-18
-2.26912e-18
-2.21702e-18
-2.14169e-18
-2.42913e-18
-2.18154e-18
-2.04277e-18
-2.20078e-18
-2.56896e-18
-2.41892e-18
-2.42485e-18
-1.89495e-18
-1.73487e-18
-2.10012e-18
-2.82537e-18
-2.21308e-18
-1.93419e-18
-1.78181e-18
-2.04946e-18
-2.08803e-18
-1.98364e-18
-1.87306e-18
-2.24987e-18
-2.24909e-18
-1.93112e-18
-2.31768e-18
-1.60151e-18
-1.88811e-18
-2.18442e-18
-2.0249e-18
-2.35949e-18
-3.38178e-18
-3.78627e-18
-3.27907e-18
-3.50448e-18
-3.46987e-18
-3.25818e-18
-2.69783e-18
-3.59103e-18
-3.85793e-18
-3.42172e-18
-3.59698e-18
-3.64373e-18
-3.48854e-18
-4.00061e-18
-4.02805e-18
-3.57204e-18
-4.22509e-18
-4.42326e-18
-4.11849e-18
-4.25267e-18
-4.02365e-18
-3.48707e-18
-3.58241e-18
-3.07743e-18
-3.11852e-18
-3.60699e-18
-3.7359e-18
-4.01599e-18
-3.82023e-18
-3.97412e-18
-4.38353e-18
-4.05048e-18
-3.67566e-18
-3.68673e-18
-4.33329e-18
-4.0829e-18
-3.97498e-18
-3.9507e-18
-4.18967e-18
-3.31965e-18
-3.7807e-18
-3.94112e-18
-3.65026e-18
-4.79976e-18
-3.80997e-18
-4.85171e-18
-4.40193e-18
-4.43072e-18
-3.63188e-18
-3.3526e-18
-3.14515e-18
-4.38103e-18
-4.33699e-18
-4.7749e-18
-4.17461e-18
-4.24926e-18
-3.96227e-18
-4.15222e-18
-3.73056e-18
-3.30103e-18
-2.68368e-18
-3.42756e-18
-3.42843e-18
-3.8296e-18
-3.93334e-18
-3.28191e-18
-3.94004e-18
-4.25424e-18
-3.5732e-18
-4.40331e-18
-3.49955e-18
-4.02854e-18
-4.25643e-18
-3.67289e-18
-3.54682e-18
-3.74401e-18
-4.0995e-18
-3.68608e-18
-4.20862e-18
-3.59461e-18
-3.71171e-18
-4.08266e-18
-4.33671e-18
-4.07807e-18
-3.90558e-18
-3.71331e-18
-3.54871e-18
-3.73415e-18
-3.53879e-18
-3.2931e-18
-3.64975e-18
-4.38128e-18
-3.26029e-18
-3.93328e-18
-3.97352e-18
-3.28166e-18
-4.06812e-18
-4.04157e-18
-3.7729e-18
-4.64273e-18
-3.88646e-18
-3.81681e-18
-5.33398e-18
-4.48866e-18
-3.33102e-18
-4.23259e-18
-3.47458e-18
-3.69006e-18
-4.31993e-18
-3.79244e-18
-4.4706e-18
-4.04321e-18
-4.52237e-18
-4.25141e-18
-4.51461e-18
-4.02004e-18
-4.1401e-18
-4.09324e-18
-3.71851e-18
-3.60582e-18
-3.52398e-18
-3.92178e-18
-3.97494e-18
-3.40377e-18
-3.21547e-18
-3.53675e-18
-3.63436e-18
-4.04591e-18
-4.41074e-18
-3.32994e-18
-4.01657e-18
-4.16505e-18
-3.57828e-18
-3.67142e-18
-3.88414e-18
-3.74237e-18
-3.63165e-18
-3.88599e-18
-3.80992e-18
-4.11669e-18
-2.62967e-18
-2.90877e-18
-3.82576e-18
-3.81048e-18
-3.63259e-18
-3.85366e-18
-4.06168e-18
-3.96508e-18
-4.81448e-18
-3.60105e-18
-5.22922e-18
-4.08993e-18
-4.46181e-18
-3.63808e-18
-4.37828e-18
-4.17555e-18
-3.83285e-18
-3.873e-18
-2.68248e-18
-4.45069e-18
-3.42553e-18
-3.80177e-18
-4.088e-18
-3.90392e-18
-3.26373e-18
-4.11984e-18
-3.78815e-18
-3.47761e-18
-3.81433e-18
-3.98247e-18
-3.9407e-18
-4.34155e-18
-4.78063e-18
-4.08471e-18
-4.04126e-18
-4.13649e-18
-4.98181e-18
-3.2268e-18
-4.08423e-18
-4.51379e-18
-3.77975e-18
-4.70418e-18
-4.52395e-18
-4.25348e-18
-4.02858e-18
-3.49154e-18
-3.88607e-18
-3.23397e-18
-3.06619e-18
-3.1975e-18
-3.62267e-18
-4.81955e-18
-3.85461e-18
-4.57832e-18
-4.54707e-18
-3.54466e-18
-4.03078e-18
-3.37392e-18
-3.46671e-18
-4.06247e-18
-3.8589e-18
-4.03995e-18
-3.7294e-18
-4.63804e-18
-3.31178e-18
-3.73069e-18
-4.32039e-18
-4.18811e-18
-4.0942e-18
-4.11936e-18
-3.74833e-18
-4.05849e-18
-4.25213e-18
-3.81708e-18
-4.2768e-18
-3.74255e-18
-3.62994e-18
-3.69732e-18
-4.59072e-18
-3.94637e-18
-4.13866e-18
-3.56687e-18
-3.60563e-18
-3.9781e-18
-3.99901e-18
-3.62306e-18
-3.87775e-18
-4.31625e-18
-4.21947e-18
-4.42713e-18
-4.11753e-18
-3.8628e-18
-3.76794e-18
-3.4828e-18
-4.0532e-18
-3.65866e-18
-3.82525e-18
-3.71543e-18
-3.08476e-18
-4.26427e-18
-3.99044e-18
-4.61938e-18
-3.70533e-18
-4.28598e-18
-4.78134e-18
-3.80631e-18
-3.33373e-18
-4.25849e-18
-4.20111e-18
-4.39221e-18
-3.4676e-18
-3.55377e-18
-3.86835e-18
-4.23964e-18
-3.34378e-18
-3.8557e-18
-7.72097e-18
-5.85456e-18
-6.15028e-18
-6.60295e-18
-7.20151e-18
-6.33786e-18
-6.96591e-18
-5.76009e-18
-7.69352e-18
-6.36697e-18
-7.2436e-18
-6.35408e-18
-5.70419e-18
-7.04628e-18
-6.8557e-18
-6.376e-18
-7.39862e-18
-8.66398e-18
-7.40344e-18
-8.4473e-18
-7.97491e-18
-6.9642e-18
-6.46015e-18
-5.94246e-18
-6.84206e-18
-6.3868e-18
-7.72421e-18
-6.95841e-18
-6.16907e-18
-6.51588e-18
-7.82418e-18
-7.54561e-18
-9.0334e-18
-6.38127e-18
-7.35274e-18
-7.8438e-18
-8.75186e-18
-6.46211e-18
-9.59282e-18
-7.71099e-18
-8.65558e-18
-8.49203e-18
-6.85671e-18
-8.19494e-18
-7.64014e-18
-6.46091e-18
-7.05037e-18
-7.3809e-18
-8.03391e-18
-7.19135e-18
-6.4359e-18
-6.53695e-18
-7.65376e-18
-7.77081e-18
-7.65049e-18
-7.82942e-18
-7.83563e-18
-8.36641e-18
-7.18592e-18
-6.49334e-18
-6.45688e-18
-6.35241e-18
-7.80513e-18
-6.47667e-18
-6.73788e-18
-6.46996e-18
-6.52984e-18
-6.98339e-18
-7.32797e-18
-7.20038e-18
-6.48073e-18
-7.93893e-18
-7.13208e-18
-7.6749e-18
-6.76657e-18
-7.74832e-18
-7.03108e-18
-6.81861e-18
-6.64884e-18
-6.44779e-18
-6.89359e-18
-5.83601e-18
-7.80756e-18
-6.61563e-18
-8.07361e-18
-7.29551e-18
-6.70299e-18
-5.86869e-18
-7.57729e-18
-6.38099e-18
-6.18222e-18
-6.25443e-18
-7.59052e-18
-6.28305e-18
-8.20435e-18
-6.714e-18
-7.82817e-18
-7.53094e-18
-6.94258e-18
-7.0772e-18
-7.84823e-18
-6.86056e-18
-8.27312e-18
-8.43156e-18
-7.13733e-18
-6.371e-18
-6.25028e-18
-7.251e-18
-8.9611e-18
-6.12222e-18
-6.2051e-18
-6.70045e-18
-7.74076e-18
-7.42074e-18
-7.81908e-18
-6.28908e-18
-8.81553e-18
-7.18161e-18
-7.63828e-18
-7.02231e-18
-7.62065e-18
-6.60026e-18
-7.70939e-18
-7.13779e-18
-6.14751e-18
-6.47486e-18
-7.3927e-18
-7.47681e-18
-7.94363e-18
-7.15809e-18
-5.55292e-18
-7.77592e-18
-6.33998e-18
-7.65118e-18
-6.86421e-18
-7.02208e-18
-6.98822e-18
-8.35948e-18
-7.76862e-18
-7.01016e-18
-6.71824e-18
-4.88281e-18
-6.96209e-18
-7.55643e-18
-6.91335e-18
-6.15904e-18
-6.55063e-18
-8.59283e-18
-6.7596e-18
-6.62732e-18
-8.13045e-18
-7.64558e-18
-8.35423e-18
-7.33206e-18
-7.65626e-18
-7.0742e-18
-8.45479e-18
-7.66797e-18
-6.44035e-18
-6.11162e-18
-7.19956e-18
-6.10372e-18
-6.32127e-18
-6.38229e-18
-6.98889e-18
-7.61157e-18
-8.73431e-18
-7.66691e-18
-7.14584e-18
-5.64828e-18
-7.22536e-18
-6.04116e-18
-5.98326e-18
-7.26239e-18
-8.94175e-18
-7.73706e-18
-7.87529e-18
-8.29588e-18
-6.52285e-18
-7.32071e-18
-7.28604e-18
-6.61889e-18
-7.08906e-18
-7.65375e-18
-8.83678e-18
-7.44337e-18
-7.73641e-18
-7.51408e-18
-7.4296e-18
-7.09469e-18
-7.4622e-18
-8.33925e-18
-7.0013e-18
-5.92816e-18
-6.83412e-18
-5.51867e-18
-8.34584e-18
-6.88177e-18
-5.84496e-18
-7.61662e-18
-6.62813e-18
-7.6581e-18
-7.38772e-18
-9.15899e-18
-5.5224e-18
-6.12163e-18
-5.83037e-18
-6.8772e-18
-7.88536e-18
-8.62438e-18
-6.98303e-18
-8.53981e-18
-8.10855e-18
-7.3562e-18
-8.2132e-18
-5.93648e-18
-7.38491e-18
-6.64899e-18
-7.44256e-18
-8.11139e-18
-6.61168e-18
-9.23203e-18
-7.03324e-18
-8.17283e-18
-8.82379e-18
-6.04018e-18
-6.81982e-18
-8.17405e-18
-7.91811e-18
-5.84453e-18
-7.13801e-18
-7.93364e-18
-8.06231e-18
-6.54074e-18
-6.43367e-18
-6.22642e-18
-7.09171e-18
-7.85635e-18
-6.78229e-18
-8.47309e-18
-8.12936e-18
-9.05223e-18
-7.63505e-18
-7.57455e-18
-7.13754e-18
-8.2068e-18
-7.34028e-18
-8.88072e-18
-7.00969e-18
-7.5343e-18
-7.9852e-18
-7.65147e-18
-8.09804e-18
-8.02161e-18
-8.20733e-18
-8.23779e-18
-1.48895e-17
-1.09192e-17
-1.30607e-17
-1.09359e-17
-1.38984e-17
-1.46877e-17
-1.07349e-17
-9.78634e-18
-1.05414e-17
-1.25456e-17
-1.4344e-17
-1.50681e-17
-1.46834e-17
-1.36479e-17
-1.24099e-17
-1.38699e-17
-1.34073e-17
-1.10366e-17
-1.23116e-17
-1.29782e-17
-1.27497e-17
-1.34253e-17
-1.1978e-17
-1.42004e-17
-1.13287e-17
-1.48667e-17
-1.25643e-17
-1.32118e-17
-1.16453e-17
-1.17539e-17
-1.33827e-17
-1.1872e-17
-1.1092e-17
-1.20881e-17
-1.5062e-17
-1.48386e-17
-1.60762e-17
-1.63584e-17
-1.39798e-17
-1.45554e-17
-1.48167e-17
-1.39535e-17
-1.31868e-17
-1.26589e-17
-1.51737e-17
-1.30869e-17
-1.40589e-17
-1.48051e-17
-1.49531e-17
-1.33737e-17
-1.34921e-17
-1.2942e-17
-1.24231e-17
-1.31484e-17
-1.39396e-17
-1.56871e-17
-1.47653e-17
-1.3484e-17
-1.13689e-17
-1.49563e-17
-1.36201e-17
-1.41972e-17
-1.44498e-17
-1.42881e-17
-1.32879e-17
-1.27645e-17
-1.23879e-17
-1.16027e-17
-1.3151e-17
-1.38538e-17
-1.41274e-17
-1.37744e-17
-1.15752e-17
-1.09855e-17
-1.13208e-17
-1.21477e-17
-1.56709e-17
-1.39598e-17
-1.38509e-17
-1.29197e-17
-1.38729e-17
-1.36634e-17
-1.45183e-17
-1.53803e-17
-1.45293e-17
-1.0402e-17
-1.22316e-17
-1.43442e-17
-1.37133e-17
-1.48721e-17
-1.27066e-17
-1.24462e-17
-1.44459e-17
-1.11032e-17
-1.37182e-17
-1.14256e-17
-1.15926e-17
-1.48165e-17
-1.20553e-17
-1.40188e-17
-1.49864e-17
-1.43995e-17
-1.58251e-17
-1.7173e-17
-1.50488e-17
-1.38501e-17
-1.25082e-17
-1.15837e-17
-1.33997e-17
-1.19208e-17
-1.25282e-17
-1.25633e-17
-1.32834e-17
-1.27346e-17
-1.14344e-17
-1.49528e-17
-1.33698e-17
-1.48506e-17
-1.55339e-17
-1.36407e-17
-1.46429e-17
-1.19163e-17
-1.17481e-17
-1.14478e-17
-1.18439e-17
-1.40083e-17
-1.20329e-17
-1.56106e-17
-1.30722e-17
-1.57573e-17
-1.37321e-17
-1.6085e-17
-1.61878e-17
-1.34455e-17
-1.40478e-17
-1.23049e-17
-1.57159e-17
-1.35528e-17
-1.48258e-17
-1.38363e-17
-1.24533e-17
-1.1519e-17
-1.41633e-17
-1.33225e-17
-1.20373e-17
-1.16201e-17
-1.32929e-17
-1.38873e-17
-1.25649e-17
-1.82136e-17
-1.49423e-17
-1.56504e-17
-1.53359e-17
-1.20314e-17
-1.18454e-17
-1.25229e-17
-1.43598e-17
-1.13624e-17
-1.23295e-17
-1.25473e-17
-1.47594e-17
-1.39854e-17
-1.61074e-17
-1.35783e-17
-1.3633e-17
-1.34845e-17
-1.40492e-17
-8.87654e-18
-1.54592e-17
-1.34083e-17
-1.38394e-17
-1.63028e-17
-1.45645e-17
-1.29172e-17
-1.3178e-17
-1.3522e-17
-1.27783e-17
-1.5861e-17
-1.36227e-17
-1.42057e-17
-1.48877e-17
-1.26693e-17
-1.36043e-17
-1.26269e-17
-1.25497e-17
-1.51333e-17
-1.21452e-17
-1.34703e-17
-1.30456e-17
-1.41218e-17
-1.457e-17
-1.29867e-17
-1.22945e-17
-1.45622e-17
-1.48212e-17
-1.24661e-17
-1.52189e-17
-1.32001e-17
-1.59338e-17
-1.31308e-17
-1.52877e-17
-1.20509e-17
-1.51565e-17
-1.59953e-17
-1.05249e-17
-1.18606e-17
-1.06562e-17
-1.2586e-17
-1.2855e-17
-1.49336e-17
-1.10858e-17
-1.55376e-17
-1.17044e-17
-1.48198e-17
-1.12578e-17
-1.38333e-17
-1.6293e-17
-1.07934e-17
-1.51718e-17
-1.26688e-17
-1.11927e-17
-1.31057e-17
-1.3221e-17
-1.22429e-17
-1.46698e-17
-1.40165e-17
-1.47573e-17
-1.308e-17
-1.41154e-17
-1.23712e-17
-9.82989e-18
-1.33543e-17
-1.49504e-17
-1.09016e-17
-1.33168e-17
-1.34622e-17
-1.40213e-17
-1.42102e-17
-1.4645e-17
-1.39757e-17
-1.29367e-17
-1.28655e-17
-1.4602e-17
-1.26628e-17
-1.44629e-17
-1.67842e-17
-1.41206e-17
-1.14382e-17
-1.11708e-17
-1.07664e-17
-1.58895e-17
-1.38345e-17
-1.03365e-17
-1.1789e-17
-1.34128e-17
-1.25889e-17
-2.52737e-17
-2.20648e-17
-2.3606e-17
-2.5973e-17
-2.87083e-17
-2.63169e-17
-2.5342e-17
-2.64758e-17
-2.43183e-17
-2.48374e-17
-2.32845e-17
-2.29673e-17
-2.82818e-17
-2.29933e-17
-2.31382e-17
-2.21826e-17
-3.13001e-17
-2.66928e-17
-2.51004e-17
-2.69875e-17
-3.17951e-17
-3.01982e-17
-2.46476e-17
-2.51334e-17
-2.76513e-17
-2.54353e-17
-2.41254e-17
-2.45978e-17
-2.51996e-17
-2.86094e-17
-2.77816e-17
-2.35515e-17
-2.18626e-17
-2.93147e-17
-2.9746e-17
-2.27102e-17
-2.55463e-17
-2.75223e-17
-2.40739e-17
-2.15782e-17
-2.65209e-17
-3.0188e-17
-2.70659e-17
-2.81202e-17
-3.4291e-17
-2.72293e-17
-2.44607e-17
-2.4058e-17
-2.70064e-17
-2.70774e-17
-2.77747e-17
-2.91787e-17
-2.26644e-17
-2.43184e-17
-2.44029e-17
-2.69083e-17
-2.591e-17
-3.04634e-17
-2.52947e-17
-2.20933e-17
-2.46969e-17
-2.48793e-17
-3.00856e-17
-2.62319e-17
-2.78397e-17
-2.68603e-17
-2.36594e-17
-2.11643e-17
-2.47352e-17
-2.37913e-17
-2.66342e-17
-2.48484e-17
-2.54107e-17
-2.36914e-17
-2.9255e-17
-2.86859e-17
-2.42221e-17
-2.56403e-17
-2.5216e-17
-2.39239e-17
-2.39064e-17
-2.69996e-17
-2.76682e-17
-2.60848e-17
-2.86761e-17
-2.76284e-17
-2.44234e-17
-2.21147e-17
-2.22191e-17
-2.49515e-17
-2.64355e-17
-2.54358e-17
-2.54367e-17
-2.44727e-17
-3.38304e-17
-2.42086e-17
-2.36404e-17
-2.72952e-17
-2.80986e-17
-2.59896e-17
-2.65151e-17
-2.65339e-17
-2.63628e-17
-2.50218e-17
-2.84941e-17
-2.89447e-17
-2.61801e-17
-2.36454e-17
-2.35623e-17
-2.63439e-17
-2.79353e-17
-2.33581e-17
-2.56311e-17
-3.06351e-17
-2.63238e-17
-2.30553e-17
-2.32026e-17
-2.27419e-17
-2.47503e-17
-2.55624e-17
-3.05181e-17
-2.58582e-17
-2.37737e-17
-2.00571e-17
-2.613e-17
-2.45369e-17
-2.77013e-17
-2.43569e-17
-2.13366e-17
-2.39411e-17
-2.03024e-17
-2.52112e-17
-2.14578e-17
-2.54584e-17
-3.29273e-17
-2.76192e-17
-2.80636e-17
-2.5889e-17
-2.53333e-17
-2.22857e-17
-2.67104e-17
-2.43685e-17
-2.92597e-17
-2.53303e-17
-2.36522e-17
-2.52031e-17
-2.13064e-17
-2.70991e-17
-2.70765e-17
-2.59743e-17
-2.15578e-17
-2.29058e-17
-1.99982e-17
-2.55884e-17
-2.55574e-17
-2.46659e-17
-2.50568e-17
-2.35046e-17
-2.72737e-17
-2.16643e-17
-2.1138e-17
-2.39218e-17
-2.36951e-17
-2.61676e-17
-2.45985e-17
-2.29652e-17
-2.47036e-17
-2.44735e-17
-2.44885e-17
-2.72973e-17
-2.79084e-17
-2.77685e-17
-2.38871e-17
-2.34221e-17
-2.6582e-17
-2.85257e-17
-2.14918e-17
-1.98032e-17
-2.36138e-17
-2.43895e-17
-2.98056e-17
-2.34903e-17
-2.8991e-17
-2.97128e-17
-2.64953e-17
-3.0153e-17
-2.14473e-17
-2.42471e-17
-2.58025e-17
-2.3286e-17
-2.73826e-17
-2.11263e-17
-2.55583e-17
-2.74335e-17
-2.68741e-17
-2.65518e-17
-2.48844e-17
-2.55075e-17
-2.59106e-17
-2.38125e-17
-2.45204e-17
-2.4633e-17
-2.61044e-17
-2.45625e-17
-2.45795e-17
-2.51478e-17
-2.37928e-17
-2.40958e-17
-2.47752e-17
-3.00881e-17
-2.32127e-17
-2.91237e-17
-2.68059e-17
-3.01417e-17
-2.74163e-17
-2.51881e-17
-2.39888e-17
-2.33914e-17
-2.48087e-17
-3.01672e-17
-2.70133e-17
-2.72323e-17
-2.67464e-17
-2.21424e-17
-2.24108e-17
-2.67011e-17
-2.2952e-17
-2.82415e-17
-2.68756e-17
-2.41319e-17
-3.00636e-17
-2.62874e-17
-2.76983e-17
-2.51877e-17
-2.56001e-17
-2.7244e-17
-2.99229e-17
-2.71151e-17
-2.56889e-17
-2.43642e-17
-2.36561e-17
-2.8475e-17
-2.30665e-17
-2.07026e-17
-2.40563e-17
-2.72537e-17
-2.10453e-17
-2.36357e-17
-2.71653e-17
-3.04492e-17
-2.46078e-17
-2.30096e-17
-2.51335e-17
-2.34807e-17
-2.57605e-17
-2.58061e-17
-5.21943e-17
-3.89354e-17
-4.16644e-17
-4.7173e-17
-4.03465e-17
-4.717e-17
-5.23481e-17
-4.49749e-17
-5.23452e-17
-4.69585e-17
-5.67741e-17
-5.57293e-17
-5.18472e-17
-4.62122e-17
-4.22654e-17
-3.80879e-17
-5.04677e-17
-5.88652e-17
-4.44924e-17
-4.71012e-17
-4.0386e-17
-5.48793e-17
-3.88126e-17
-4.39807e-17
-4.11845e-17
-4.30331e-17
-5.81266e-17
-4.40688e-17
-4.29738e-17
-4.62159e-17
-5.29574e-17
-6.30879e-17
-5.35291e-17
-5.58637e-17
-4.97972e-17
-4.5637e-17
-5.12131e-17
-5.45805e-17
-4.1094e-17
-4.85208e-17
-4.80942e-17
-5.74866e-17
-5.49002e-17
-4.98575e-17
-4.18025e-17
-5.10234e-17
-5.06369e-17
-4.35926e-17
-4.60279e-17
-4.39052e-17
-4.20082e-17
-4.73022e-17
-4.3348e-17
-4.93841e-17
-4.60498e-17
-5.05819e-17
-4.4136e-17
-4.29175e-17
-4.96077e-17
-4.13502e-17
-4.55271e-17
-4.25109e-17
-4.37041e-17
-5.24654e-17
-4.64002e-17
-4.58756e-17
-4.51632e-17
-4.12267e-17
-4.03656e-17
-4.24754e-17
-5.19452e-17
-4.49611e-17
-5.07532e-17
-5.22203e-17
-4.31372e-17
-4.43892e-17
-4.81897e-17
-5.62125e-17
-5.06614e-17
-3.91166e-17
-5.00125e-17
-4.58406e-17
-4.26479e-17
-5.22303e-17
-3.93212e-17
-4.82931e-17
-5.61097e-17
-4.96361e-17
-4.63792e-17
-5.43969e-17
-4.31136e-17
-5.22017e-17
-4.92554e-17
-4.9959e-17
-4.51665e-17
-5.27753e-17
-5.78826e-17
-4.6333e-17
-5.48595e-17
-4.59347e-17
-5.57408e-17
-5.18521e-17
-4.76224e-17
-4.84021e-17
-4.54528e-17
-5.44595e-17
-4.54475e-17
-4.54506e-17
-4.81458e-17
-5.28044e-17
-4.19882e-17
-4.31479e-17
-4.69152e-17
-5.0802e-17
-5.20435e-17
-4.73583e-17
-4.89173e-17
-4.34927e-17
-5.50885e-17
-4.70325e-17
-5.07414e-17
-4.36824e-17
-5.30176e-17
-4.65273e-17
-4.30992e-17
-5.18767e-17
-5.58421e-17
-5.38884e-17
-4.68952e-17
-4.96761e-17
-4.8613e-17
-4.36068e-17
-5.13488e-17
-5.77544e-17
-4.91842e-17
-5.0864e-17
-4.76423e-17
-4.96154e-17
-5.49786e-17
-4.49126e-17
-4.34585e-17
-4.41427e-17
-4.21632e-17
-4.66603e-17
-4.42143e-17
-4.37188e-17
-4.70659e-17
-5.43617e-17
-5.24203e-17
-4.21493e-17
-4.1107e-17
-4.2529e-17
-5.03228e-17
-5.71412e-17
-5.2353e-17
-4.50401e-17
-4.66142e-17
-4.77567e-17
-5.31909e-17
-4.54347e-17
-4.67215e-17
-4.58848e-17
-5.23083e-17
-4.67186e-17
-5.03524e-17
-4.34527e-17
-4.61212e-17
-4.78153e-17
-5.13358e-17
-5.2346e-17
-4.4111e-17
-5.08785e-17
-4.68513e-17
-6.13504e-17
-5.43043e-17
-4.29931e-17
-5.19103e-17
-4.06804e-17
-5.03752e-17
-4.14716e-17
-5.30797e-17
-5.09146e-17
-4.19908e-17
-4.83025e-17
-5.48779e-17
-4.95583e-17
-5.1636e-17
-4.35877e-17
-4.89447e-17
-4.42153e-17
-3.81152e-17
-5.9355e-17
-4.81437e-17
-4.65776e-17
-4.94337e-17
-4.51025e-17
-4.53372e-17
-4.93964e-17
-4.6054e-17
-4.50174e-17
-4.27515e-17
-5.42685e-17
-3.75483e-17
-4.92653e-17
-4.81846e-17
-4.00319e-17
-5.21571e-17
-5.93702e-17
-4.60179e-17
-5.1945e-17
-4.14424e-17
-4.27738e-17
-4.79147e-17
-4.65056e-17
-4.56963e-17
-5.14646e-17
-4.65724e-17
-5.46443e-17
-4.72372e-17
-4.54475e-17
-5.11874e-17
-5.00943e-17
-5.01132e-17
-4.09491e-17
-5.14706e-17
-4.14491e-17
-5.04451e-17
-4.78629e-17
-4.55534e-17
-5.19021e-17
-4.57454e-17
-4.75743e-17
-5.11968e-17
-4.92484e-17
-5.17779e-17
-5.14003e-17
-3.94598e-17
-3.9196e-17
-4.71677e-17
-5.92059e-17
-5.08473e-17
-5.53837e-17
-5.31409e-17
-4.31462e-17
-5.33468e-17
-4.89575e-17
-3.89328e-17
-4.65645e-17
-5.29212e-17
-5.66191e-17
-4.44724e-17
-4.98228e-17
-4.26421e-17
-4.47403e-17
-4.35181e-17
-4.89791e-17
-7.99602e-17
-7.86476e-17
-8.11884e-17
-8.37639e-17
-7.61623e-17
-9.38658e-17
-8.14726e-17