# vtk DataFile Version 1.0
Electron Density - Current Sheet 
ASCII
DATASET STRUCTURED_POINTS
DIMENSIONS 256 128 1
ORIGIN 0 0 0
SPACING 0.15625 0.15625 1
POINT_DATA 32768
SCALARS rhoe float
LOOKUP_TABLE default
0.00110221
-1.03876e-05
-8.88259e-06
-6.38172e-06
-5.28125e-06
-1.88887e-05
-2.95454e-06
-1.39711e-05
-3.51251e-06
-1.78106e-05
-5.4692e-06
-1.67519e-05
2.60484e-08
-2.40109e-05
-7.55203e-06
-6.85766e-06
-1.19062e-05
2.08417e-06
-5.81784e-06
-1.98077e-05
-2.35806e-05
1.60455e-05
-7.07223e-06
-7.62192e-06
-7.03984e-06
-4.04671e-05
5.47074e-06
-5.05332e-06
1.59993e-05
-6.46524e-05
1.09681e-05
1.17654e-05
-5.64323e-05
3.2529e-05
-2.6938e-05
2.41094e-05
-2.0813e-05
1.01412e-06
-7.77085e-05
2.65662e-05
-1.24984e-05
1.88908e-05
-4.19775e-05
-6.94346e-06
1.77494e-05
-3.73769e-05
1.74383e-05
3.71343e-05
-7.05854e-05
-2.22343e-05
-6.85641e-06
-5.14099e-05
3.22701e-05
-5.25775e-05
-1.08015e-05
2.9017e-05
-3.32048e-05
4.25915e-05
-5.99259e-05
2.09249e-05
-6.58442e-05
4.13657e-05
1.54316e-06
-4.7794e-06
-3.58606e-05
2.10651e-06
-8.20863e-07
8.27799e-05
-7.15322e-05
-7.41413e-06
6.38296e-05
-4.07872e-05
-6.89425e-05
3.67449e-05
-6.47633e-05
-4.97925e-05
9.70898e-05
2.27754e-05
-5.44165e-05
2.4428e-06
-7.53511e-06
-1.0153e-05
-2.17828e-06
-3.30698e-05
-4.40327e-05
4.552e-05
-7.22375e-06
9.67698e-06
-9.05423e-05
1.21402e-05
0.000119377
-6.027e-05
-5.37086e-05
2.21937e-05
-7.06681e-05
0.000126634
-0.000135224
-1.20852e-05
6.38953e-05
-0.000146517
2.33569e-05
3.68636e-07
8.37326e-05
-8.65455e-05
5.78777e-05
8.5595e-06
-1.36693e-05
-6.53786e-05
-3.69148e-05
1.63635e-05
7.46165e-05
-6.69077e-05
-3.45783e-05
4.60289e-05
-0.00010443
-3.22154e-05
6.08163e-05
3.97201e-05
-5.63425e-05
-2.77747e-05
2.64898e-05
-3.67386e-05
-2.1126e-06
-3.53253e-05
0.000153112
-0.000260861
6.18824e-05
4.37314e-06
3.54481e-05
0.000121005
-0.000146317
1.59042e-05
2.35575e-05
-0.000120151
-4.90019e-05
0.000194812
-9.25689e-05
-0.00011627
9.86238e-05
0.000168049
-0.000252917
1.86207e-05
7.22343e-05
6.50655e-05
-0.00018376
-9.29638e-05
0.000126939
4.43404e-05
-9.56594e-05
7.42052e-05
-0.000111977
-6.5666e-05
0.000169668
3.62454e-05
-0.000137357
2.84842e-05
0.000114527
-0.000246128
0.000122389
5.97495e-05
-0.000170237
8.43792e-05
-9.47938e-06
-1.37909e-05
-8.52057e-05
7.40752e-05
6.80536e-05
-0.000155183
6.99999e-05
-7.03948e-05
-2.68782e-05
0.000109496
-5.43031e-05
-0.00021784
0.000236594
6.65946e-05
-0.000209919
0.000189359
-0.000308105
0.000213614
-3.01556e-05
-4.96938e-05
5.37702e-05
-8.24808e-05
8.64083e-05
3.6733e-05
-0.000198579
-0.000160101
0.000320361
-5.60108e-05
-9.42702e-05
0.00010711
-5.86632e-05
9.80735e-05
-0.000189999
3.42012e-05
-0.000112447
0.000148667
-0.000128432
3.67447e-05
8.84999e-05
-0.000162689
1.72703e-05
-5.65497e-06
0.000112895
-0.000134697
0.000256838
-0.00017157
-0.000135576
6.93629e-05
-4.23801e-05
-0.000118136
0.0001527
-2.76512e-05
1.64714e-05
0.000195772
-0.0003454
0.000266875
0.000111318
-0.000359901
9.84478e-06
8.76154e-05
-8.89844e-05
-0.000266737
0.000224107
0.000280506
-0.000286669
3.58972e-05
2.73281e-05
-0.000160822
7.0098e-06
0.000139022
-0.000138376
-2.86966e-05
-6.19132e-05
3.44999e-05
-0.000127728
0.000148194
0.000344022
-0.000328354
-7.7247e-05
2.70211e-05
-7.65999e-05
6.71489e-05
0.00014822
-7.07276e-05
5.7444e-05
-0.000199827
8.54123e-05
-5.45308e-05
-4.95491e-05
0.000215596
-1.76185e-05
-0.000181279
-7.74946e-06
-8.67558e-05
0.00112713
-1.17364e-05
-1.32073e-05
-9.25565e-06
-7.50002e-06
-1.11749e-05
-7.83417e-06
-2.26894e-05
-3.86556e-06
-6.59039e-06
-9.77313e-06
-9.83103e-06
-2.01337e-05
-1.07319e-05
-2.82271e-06
-1.61627e-05
-2.97962e-05
1.55379e-05
-2.55513e-05
-1.40485e-06
-7.84894e-06
-2.07698e-05
2.49549e-06
5.85626e-06
-5.66463e-05
1.14936e-05
-1.74781e-05
-3.94949e-05
3.15182e-05
-1.75524e-05
-1.47015e-05
-2.16215e-05
-2.18514e-05
6.15997e-06
-1.85092e-05
-3.03696e-05
3.16532e-05
-6.54697e-06
-2.37673e-05
-1.91998e-05
-3.77735e-06
-2.06803e-05
-4.88474e-06
-3.37869e-05
-1.97754e-05
2.48315e-05
-3.31681e-05
-1.22317e-05
2.00432e-06
-5.60092e-06
-1.14856e-05
-9.39949e-06
-3.96459e-05
3.17081e-05
-9.64478e-06
1.18163e-06
1.22368e-05
-1.44303e-06
-5.78138e-05
2.85642e-05
1.25029e-05
-7.93293e-05
-6.55289e-07
-2.82512e-05
3.89527e-05
-1.2134e-05
-5.90671e-06
4.86347e-05
-6.90231e-05
-5.20247e-05
0.00010429
-0.000104749
-1.36291e-05
-3.59836e-05
3.78744e-05
-1.01093e-05
-7.25911e-07
-1.45961e-05
-2.29754e-05
1.43698e-05
-2.27982e-05
-5.35943e-05
6.14027e-05
-4.94314e-05
6.21696e-05
4.38239e-05
-0.00013047
4.53515e-05
-0.000155437
8.84794e-05
5.74071e-05
-0.000142546
0.000143508
-3.38896e-06
-9.73663e-05
8.7164e-05
-4.93202e-05
-7.14404e-05
6.80766e-06
4.88306e-05
-1.10107e-06
-3.54191e-05
-7.75385e-05
4.51938e-05
-0.000119678
3.28261e-05
7.27965e-06
4.34357e-05
-6.33146e-05
-8.19172e-05
0.000107081
1.99382e-05
1.73764e-05
-3.4993e-05
-7.56888e-05
1.24074e-05
-5.76174e-05
4.04182e-05
-3.30867e-05
1.26955e-05
2.91495e-05
8.81704e-05
-0.000110067
-3.33175e-05
0.000163787
-0.000108468
-0.00012684
0.000111273
8.06422e-07
-5.59997e-05
-0.000110735
-1.68213e-05
0.000144542
-3.08965e-05
-1.22235e-05
-0.000163685
6.69349e-05
0.00010298
-0.000148579
4.10447e-05
3.75746e-05
-5.15968e-05
-8.48375e-05
0.000210266
-0.000136522
-7.45753e-05
5.70395e-05
-2.52307e-05
-1.01699e-05
-7.64622e-05
2.92681e-05
-5.19548e-05
0.000133165
-5.87729e-05
-0.000114145
-0.000164805
0.000267962
-0.000120818
8.51472e-05
1.68622e-05
-0.000129359
3.55029e-05
-3.10184e-05
1.58785e-06
9.59021e-05
-8.32622e-05
-6.16302e-05
-0.000106279
0.000273333
-0.000110451
-6.80006e-05
-1.57916e-05
0.000144906
-0.000242414
2.94354e-05
7.58767e-05
-0.000122321
-6.82702e-06
9.00627e-05
-8.53009e-05
0.000177065
3.01908e-05
-0.000175214
0.000144761
-0.000124486
6.19122e-05
-0.000110773
4.30512e-05
0.000104199
-0.000214049
-4.12398e-05
8.42307e-05
3.18042e-05
9.89222e-06
-0.000149655
0.000198321
2.69937e-05
-0.000168452
-0.000128275
9.92208e-07
7.36944e-05
-0.000127749
-1.0503e-05
0.000176815
-2.70767e-05
-9.23933e-06
-0.000119413
-1.65348e-05
0.000123281
-0.000253677
0.000142681
-2.80512e-05
0.000102613
-3.67334e-05
-0.00013299
4.53487e-05
1.38902e-05
1.85882e-05
0.000106086
-0.000210011
0.000170162
4.49926e-06
-0.000139876
-4.03788e-05
-1.25627e-05
5.08056e-06
-3.79988e-05
0.000155044
-8.3183e-05
-2.53879e-05
-1.46223e-05
-1.52171e-05
-2.14832e-05
-4.61307e-05
9.49393e-05
-3.48225e-05
1.20193e-05
-7.66731e-05
-0.000117618
-0.000109378
0.000334764
-8.88575e-05
-2.22582e-05
0.000178188
-0.000142362
-0.000298564
0.000230085
-0.000277172
0.000258199
0.000106909
-0.000306383
-0.000113397
3.69874e-05
-0.000136028
0.00010862
0.000140871
0.00141905
-1.08625e-05
-6.9631e-06
-1.32898e-05
-1.55882e-05
-1.67541e-06
-1.7765e-05
5.15422e-07
-3.7652e-05
-2.31408e-05
2.67438e-06
3.52773e-06
-1.60797e-05
-3.14434e-05
-1.97708e-05
2.24872e-05
-4.20552e-05
-1.48874e-05
-9.46106e-06
7.10588e-06
-7.53357e-06
-4.26832e-05
8.74858e-06
-2.20141e-05
2.36992e-05
-7.2218e-05
6.10836e-06
3.67745e-06
-4.01177e-05
2.66627e-06
1.6399e-05
-4.38477e-05
4.07272e-06
1.39016e-05
-2.29854e-05
-7.18281e-05
8.93741e-06
4.6728e-05
-0.000102372
5.87796e-05
-5.19789e-05
-2.97173e-05
-4.16629e-05
8.99191e-05
-4.70567e-06
-8.84078e-05
-3.82402e-06
-1.54676e-05
-1.20776e-06
3.9055e-05
9.93516e-06
-6.26309e-05
-2.0004e-05
-8.08426e-05
-2.65976e-05
5.83525e-05
-7.61122e-05
0.00014985
-0.000103563
-4.46082e-05
3.01426e-05
-6.99609e-05
8.78788e-05
-5.07193e-05
8.55468e-05
-8.56724e-05
0.000107901
-5.17834e-05
-8.54454e-05
-1.63312e-05
-0.000185917
0.000187879
-5.1661e-05
0.000134264
-0.000160853
0.000104895
7.73971e-05
-5.85258e-05
-0.000188416
4.41877e-05
-4.48822e-05
7.1106e-05
-0.000185713
0.000160983
-0.000129384
-2.9104e-05
0.000118592
-0.00020822
0.000137501
-6.21108e-07
4.95719e-05
-1.33646e-05
-6.34702e-05
7.65668e-05
-7.959e-05
-5.32617e-05
-3.94425e-05
9.01649e-05
-7.1231e-05
-0.000114447
8.6685e-05
-6.30082e-05
0.000228623
-0.000245832
6.29917e-05
-6.28443e-05
-7.52133e-05
4.13547e-05
3.22053e-05
0.00015731
-4.41255e-05
-0.000235808
0.000121002
-8.84474e-05
0.000152232
8.84881e-06
-1.14069e-05
1.39974e-05
-0.000152109
-1.10624e-05
-0.000112637
8.89008e-05
-0.000252648
0.000417415
-0.000312684
2.18831e-05
0.000154548
-7.92256e-05
-0.000175969
0.000120814
0.00010935
-7.83051e-05
1.36137e-05
-2.58451e-05
6.83668e-05
-7.84089e-05
-7.62864e-05
-5.70594e-05
-1.44685e-06
-3.37385e-05
5.66959e-05
-5.18803e-05
0.000205912
-0.000188635
-0.000176191
8.80321e-05
0.000109259
-0.000229428
0.000282658
0.000226439
-0.000358612
0.000263895
-0.00049966
0.000217074
0.000208428
-0.00022314
-2.84866e-05
-0.000173318
2.44206e-06
2.46018e-05
0.000240298
-1.13819e-06
-0.00010237
-0.000242522
0.000255426
-3.84373e-05
-7.86447e-05
-8.1438e-05
0.000160936
-8.27284e-05
-0.000313093
0.000275267
0.000102854
0.000200392
-0.0003144
-7.79141e-05
-5.26418e-05
0.000213168
-3.62278e-05
8.00031e-05
-0.000123547
-0.000224768
0.000161677
7.15302e-05
-0.000321746
-7.27967e-05
0.000308991
8.36136e-05
-0.000292082
0.000173595
-0.000304762
0.00019098
2.06798e-05
-0.000203629
1.83312e-05
0.000103474
-2.0166e-05
8.58831e-05
-0.000278398
3.48695e-05
4.00768e-05
0.000120053
-5.12495e-05
-3.71552e-05
0.000229789
6.91526e-06
-0.000327907
0.000208105
-0.000233458
6.27196e-06
0.000113754
-1.48455e-05
-6.92454e-05
2.22526e-05
-8.57797e-05
8.26317e-05
-5.36137e-05
0.000210034
-0.000194174
0.000154668
-0.000239877
-0.000347172
0.000553655
-0.000353283
0.000130417
0.000450198
-0.000288071
-0.000124678
-0.000299718
0.00029179
6.34597e-05
-0.000155823
-0.000271159
0.000439384
-0.000213644
0.000328653
-0.00036943
-0.000107209
0.000268275
2.05885e-05
0.00013042
-0.000182715
-0.000102262
2.52972e-05
0.000320023
-0.000413485
-7.83687e-05
9.30948e-05
0.000192911
-0.00049093
0.000384873
-0.000194395
4.39216e-05
0.000234863
-0.000200296
-0.000277287
0.0022039
-1.43653e-05
-2.06982e-05
-1.37415e-05
-6.38297e-06
-2.08626e-05
-1.17405e-05
-1.23816e-05
-3.12108e-06
3.11656e-06
-2.69626e-05
-5.06132e-05
-3.32915e-05
5.62253e-05
-3.80271e-05
-7.65867e-06
1.31103e-05
-3.74172e-05
-1.65678e-05
-3.07586e-05
-3.39642e-05
3.36762e-05
-3.06558e-05
-4.46751e-05
4.75355e-05
-7.17146e-05
-4.3908e-05
-4.76001e-05
3.58474e-05
6.83153e-05
-8.42586e-05
4.40844e-05
-9.30304e-05
6.87808e-05
-4.23203e-05
2.62821e-05
3.58503e-05
-0.000218193
0.000192921
-0.000152814
6.02023e-05
-0.000114206
8.72591e-05
-0.00015279
0.000116387
-5.84995e-06
-8.35301e-05
-2.25175e-05
2.9704e-05
-0.000142277
5.43755e-05
5.53674e-05
-9.02177e-05
-1.07371e-05
5.43246e-05
0.000129466
-5.11493e-05
-0.000251604
0.000236147
-3.9341e-05
-0.000238797
0.00014171
-0.000187807
0.00019714
-0.0001286
1.81199e-05
0.0001233
-0.000241291
0.00019902
-3.38424e-05
5.95064e-06
3.65117e-05
-2.52983e-05
-0.0002458
0.000147933
-1.23465e-05
-0.000220552
9.35573e-05
-3.49234e-05
-0.00015008
0.000387956
-0.00021583
9.03216e-05
-0.000223466
0.00019452
-4.92931e-05
-3.45686e-05
-5.24196e-05
2.33051e-05
-0.000161252
0.000105702
9.95849e-05
-0.000254617
0.000195198
-0.000204966
0.000229289
-2.25765e-05
-0.000209672
0.000122513
0.00028699
-0.000153973
-0.000650446
0.000569871
-0.000354401
0.000203361
-6.41178e-05
7.27793e-05
-7.64841e-05
8.78175e-05
-0.000143848
0.000234899
-0.000262926
2.80182e-05
2.87085e-05
-0.000122324
-0.000174628
4.22881e-05
6.77214e-05
-6.32128e-05
3.07872e-05
6.9532e-05
7.74088e-05
-9.58744e-06
-0.000219336
0.000222074
-5.01754e-05
-9.28894e-05
0.000242039
3.22689e-05
-0.000103737
-0.000415615
0.000334395
-6.3357e-05
-7.18921e-05
0.000152324
-0.000143373
4.26316e-05
-0.000210636
0.000119256
0.000155003
-4.72899e-05
-0.000350402
0.000123226
0.000151779
2.69592e-06
-0.000134777
5.62046e-05
0.000146559
-0.000537022
0.000107149
0.000317248
-0.000279908
0.000232356
9.33876e-05
-0.000426551
0.000130314
-8.05676e-05
-0.000192047
0.00049117
-0.000454867
0.000193986
-4.54699e-05
-2.9892e-05
0.000100278
-0.000235294
0.000141172
6.93884e-05
-0.000302392
-0.000132067
0.000198093
0.000598126
-0.000667424
0.000674603
-0.000664323
8.4866e-05
-0.000142528
-2.01771e-05
-7.20567e-05
0.000206654
-0.00010328
-0.000211314
-6.05817e-05
0.000105659
0.000386176
-0.000106663
-0.000231119
2.29155e-06
0.000194705
-0.000132495
-0.000505706
0.000523978
0.000188591
2.88467e-05
-0.000775736
0.000654919
-0.000106408
0.000221797
-0.000177349
-0.000188146
0.000642442
-0.00085544
0.000422125
-3.15003e-05
0.000277702
-0.000507854
-0.000502854
0.000685707
-0.0004288
0.000576981
-0.000231255
-8.16919e-05
-0.000122281
-0.000126622
-5.61172e-05
0.000225429
0.00041224
-0.000235142
-0.000278872
-0.000249731
0.000550232
-0.000671852
0.000156179
0.000400128
-0.000153912
-0.000167491
0.000237062
-0.000234123
-1.66654e-05
0.000520706
-0.000601871
5.54923e-06
1.67148e-05
-2.53986e-05
1.04694e-06
-0.000198752
0.000428064
-0.000120132
-0.000157715
-0.000171732
0.000427663
-0.000103753
-0.000111213
0.000125784
-0.000446675
0.00015622
0.000168318
1.00431e-05
-0.000252971
-0.000108027
0.000617233
-0.000279862
-0.000233492
0.000434901
-0.000335666
9.60736e-05
-0.000908791
0.00118303
-1.7029e-05
-8.48481e-06
-2.7702e-05
-1.64401e-05
-2.12443e-05
-2.56627e-06
-3.32563e-05
6.23709e-06
-8.51583e-05
-1.43024e-05
4.58176e-05
-1.66602e-05
-6.10792e-05
-8.16886e-06
-6.02678e-06
8.70925e-06
-2.9738e-05
-1.80427e-05
-7.85363e-05
6.64802e-05
-8.07399e-05
-1.87305e-05
7.64265e-06
7.19841e-06
4.00908e-05
-7.34523e-05
-2.53866e-05
-5.21541e-06
-0.000174102
9.5501e-05
4.37184e-05
-9.00799e-05
-0.000114531
2.5413e-05
0.000102266
-0.00018936
8.54687e-05
6.57557e-05
-0.000102614
1.63724e-05
9.02763e-05
-0.000247601
0.000140057
-0.00018956
0.000161482
-0.000147929
0.000221181
-0.000146165
5.5566e-05
6.69024e-05
-0.000134326
-7.87842e-05
0.000118021
-0.000250716
-0.00022532
-3.3576e-07
0.000321502
-0.000249304
-2.42309e-05
0.000346917
-0.000514072
0.000379039
-0.000331397
0.000452536
-0.000192019
-0.00013659
0.000375719
-0.000368682
-0.000346289
0.000504576
-5.13807e-05
-7.90548e-05
0.000129973
-0.000153844
-0.000292693
0.00033254
4.23124e-05
-5.87698e-05
-3.94127e-06
-0.000392879
0.000533281
6.03178e-05
-0.00036233
3.68065e-05
0.000219392
-0.000192214
6.64274e-05
-0.000348531
0.000543825
-0.000348817
1.12327e-05
1.12761e-05
-8.55687e-05
-3.23605e-05
-0.000166149
0.000217695
-0.000148067
-0.000134568
-0.000316288
0.000232645
0.000679746
-0.000281655
0.000238464
-0.000728279
0.000494431
1.69034e-05
-0.000157535
-0.000115745
5.11915e-05
-0.000440024
0.000650239
-0.000301325
8.04303e-05
9.35435e-05
6.26491e-05
-0.000484983
1.13747e-05
-0.000107825
-0.000324548
0.000402511
5.50292e-05
5.57181e-05
-0.000202059
6.47746e-05
-9.40907e-05
0.00029786
1.8426e-06
-0.00052795
-0.000148585
1.1025e-06
0.000170959
4.13664e-05
6.00471e-05
-0.000412404
0.000361047
-4.90147e-05
4.96629e-05
0.000373774
9.02282e-05
-0.000401818
-0.00037177
0.000214351
0.000158348
0.000315911
-0.000519966
0.000146243
-6.84889e-05
0.000193412
6.14284e-05
-0.000367819
0.000144526
0.000160841
-0.000178054
-8.50457e-05
0.00048663
-0.000734011
0.000309966
-0.000423854
0.000701902
-0.000615779
-1.11161e-05
0.000193283
4.2847e-05
0.000226355
-0.000221036
-0.000370849
4.08445e-05
0.000199882
0.000514304
-0.000529886
6.12834e-05
-0.00104007
0.00189358
-0.000765283
-0.000494222
-1.27653e-06
-7.9009e-05
7.39878e-05
-0.000404501
0.0012597
-3.14875e-05
-0.000523318
-0.000357027
-0.000106669
0.000483135
-0.000312083
-0.00021363
7.63169e-05
0.000391545
-5.8238e-05
-0.000176658
0.000203787
0.000200012
-1.06235e-05
-0.00064999
0.000149717
0.000113717
-0.000215808
-0.000458333
0.0002102
0.000469386
-0.000290628
-0.000214344
0.000853387
6.08718e-05
-0.000539154
0.000120226
-0.0013104
0.00158224
-8.17726e-05
-0.000199276
1.42788e-05
-0.000153833
-3.42652e-05
-0.00164955
0.00138167
4.20863e-05
-4.77098e-05
-0.000385358
0.000768225
-8.32578e-05
-0.000626208
0.000717631
-9.81354e-05
-0.00062775
-0.00013218
0.000585458
-0.000953956
0.000239103
0.000321293
-1.48122e-06
0.000639307
9.72746e-05
-0.000740927
0.000138698
-0.000875939
0.00121324
-3.21484e-05
-0.00154533
0.00106673
0.000189969
-0.000471806
5.32996e-05
0.000116065
-0.000465926
0.000865255
-0.000696896
5.04761e-05
0.000122261
-0.000232904
0.00028732
-0.000784189
0.000157818
0.000787216
0.000326277
0.00438642
-1.62303e-05
-1.89288e-05
7.0109e-06
-6.2984e-05
-1.06058e-05
2.80834e-06
1.12524e-06
-7.75436e-05
-1.26795e-05
-5.17546e-06
-5.29905e-05
-8.2851e-05
5.32632e-05
2.25411e-06
-3.41574e-05
2.74239e-06
-2.51131e-05
-8.13599e-05
7.19122e-05
-0.000153404
6.8367e-05
1.38984e-05
-5.13313e-05
-8.70351e-05
-2.31002e-05
9.08161e-05
6.44792e-06
-8.80824e-05
0.000194781
-0.000326638
-6.39433e-06
0.000128551
0.000125904
-0.000146558
-0.000136266
4.17617e-05
-0.000113753
-0.000128183
6.00193e-05
3.31982e-05
-5.66312e-05
0.000107192
-0.000220453
0.000310976
-0.000218746
2.01799e-05
-0.000121209
3.55261e-05
0.000179031
-0.000479016
0.000109252
0.000199627
-2.34302e-05
0.000103313
-4.73427e-05
-0.000268457
-0.000266382
0.00032533
0.000331819
-0.000190261
7.30703e-05
-0.000299537
7.45572e-05
-6.94751e-05
-0.000115308
8.86454e-05
9.19817e-05
-0.000472872
0.000469179
-0.000246448
-0.000295951
0.000150053
-7.36961e-05
0.000154023
0.000589424
-0.000639122
-0.000299684
0.000389087
4.35598e-05
-0.000134992
-1.79475e-05
1.74305e-05
0.000261341
-0.00035648
-8.03584e-05
0.000214866
-0.000322889
0.000329498
-0.000793164
0.000728909
-8.2124e-05
9.27798e-05
-0.000304827
-6.71557e-05
0.000445187
-0.000265643
0.000260272
-0.000328166
-0.000125021
-0.000152509
-6.99826e-05
-0.0003179
-9.1589e-05
0.0010546
-0.000509755
-0.000395
-0.000101101
0.000685379
-0.000819864
0.000855854
-0.00072377
0.000548983
-0.000231888
-8.10814e-05
0.00035349
-0.000119025
0.000414956
-0.000192066
-0.000410404
0.000418356
-9.86176e-05
-0.000625925
0.000231278
0.000300858
-0.00015314
-0.00101375
0.000635159
0.000584708
0.000257742
-4.4042e-05
-0.000107155
-0.000630697
5.20208e-05
0.000289484
-0.000352434
0.00033818
1.69367e-05
-0.0009535
-0.000242853
0.00103853
0.00018837
-0.000315311
-0.000794338
-0.00023124
0.000947547
-0.000162981
0.000179943
-0.000115855
-0.000362029
-0.000185568
0.000466383
-0.000504144
0.000421816
-0.000268157
-0.000841273
0.000530363
8.02225e-05
0.000805791
-0.000671644
0.000405732
3.07036e-05
-0.000487797
0.000544118
-0.000923731
0.000545695
-0.00062447
0.00116918
-0.00103459
-0.00011362
0.00112868
-0.000925296
-0.000260624
-0.00106506
0.00182628
-7.85933e-06
0.000154237
0.000476824
-0.00081572
-0.000534842
-0.000208707
-0.000846671
0.00129788
0.000407459
0.000405342
-0.000465892
-0.000818682
0.000605232
-0.00041488
0.000604223
-0.000289249
-0.000405307
-0.000468182
0.000679589
-0.000266629
-0.000733168
-0.00113392
0.00143691
0.00204167
-0.00228169
0.00184804
-0.00143365
-0.000289637
0.00121444
-0.000944352
-0.000221802
0.000233863
-6.425e-06
0.000538012
-0.00144355
-0.000115869
0.00168642
-0.00148519
0.000772522
-0.000624386
0.00134918
-0.000489318
-0.000164689
-0.000542056
-6.37321e-05
-0.000506427
0.00104578
0.000306895
-0.000554984
-0.000480773
0.000887942
0.000626071
-0.00274967
0.00177977
0.00013966
3.23333e-05
7.37486e-05
-0.000315395
-9.88639e-05
0.000849288
0.000306925
-0.00171711
0.000978168
-0.0007628
0.000266493
1.69807e-05
-0.00100486
0.000899592
0.000676299
-0.00209541
0.00113293
0.000121159
0.000411351
-0.000543608
-0.00069586
0.000736935
0.0003412
0.000788181
-0.00206067
0.00105597
-0.00228177
0.00124271
-3.09378e-05
-1.74512e-05
-2.76057e-05
-2.14787e-05
-3.68644e-05
-5.30037e-05
-2.06995e-05
-5.46107e-05
5.71715e-05
-4.06616e-05
-4.45625e-05
3.55289e-05
-0.000113101
1.97039e-05
-0.000143158
-3.97742e-05
0.000105869
-4.86572e-06
-0.000109186
8.461e-05
5.56419e-05
-0.000361502
0.000209815
-4.85601e-05
-0.000139255
1.59971e-06
-9.70767e-05
0.000129664
-0.000241701
0.000513747
-0.000463607
-9.36178e-05
3.7358e-05
-2.87888e-05
-0.000414792
0.000211089
0.000333939
-5.02584e-05
-9.78995e-07
-0.000374982
0.000249006
-0.000227759
0.000301175
-0.000263208
0.000137697
-0.000178175
-0.000156352
-5.54141e-05
-0.000539746
0.00097907
-0.000274321
9.1101e-05
-0.000426249
-0.00023377
0.000596711
-0.000200119
0.000117031
2.58318e-05
-0.000816716
0.000417374
-5.92868e-05
-8.80796e-05
0.000307526
0.00024316
-0.000170068
3.3172e-06
-0.000749923
0.000804466
-0.000652018
0.000608496
0.000236663
-0.000461379
0.000136726
-0.000307605
-0.000115565
0.000195284
-8.43391e-05
0.00037148
-0.000590157
0.000449598
-0.000824048
0.000376549
2.31389e-05
0.00022355
-6.95366e-05
-0.000924486
0.000915962
-0.000989067
0.00114604
-0.000849666
-2.07209e-05
-0.000272189
-0.000190533
0.00101112
-0.000338017
-0.000435422
0.000335329
-0.000360007
0.000731027
-0.000542443
0.00051869
-0.000280916
-0.000256829
0.000153532
0.000270365
0.000467827
-0.0001663
-0.000548405
0.000183579
-0.000172962
0.000217988
-0.000882156
0.000713441
-0.000358131
-0.00101139
0.00094558
-0.000449617
-4.38384e-06
0.000679859
-0.000451071
-0.00066996
0.00107694
-0.0002595
-0.000617227
-5.01015e-05
0.00183033
-0.00134118
-0.000421696
-0.000173521
0.000505482
3.34104e-05
-0.00132068
0.00035478
0.000637761
0.00123967
-0.00095657
-0.00111069
0.00140334
0.000836791
-0.00200012
0.000229194
0.000230928
-2.38113e-07
0.000922115
-0.00022645
-0.000410511
-0.00028248
-0.000354906
0.000145296
0.000551723
-0.000929742
0.000483933
0.000315125
0.000452399
-0.000823863
0.000114048
0.000209028
-0.000399882
0.000138525
0.000328153
-0.00027795
-6.70528e-05
0.000292579
-0.00105604
0.000612406
0.000465561
-0.0012644
0.00178722
-0.00067653
-0.00121173
0.0019619
-0.000199296
-0.00135775
-9.47816e-05
-0.000562225
0.00168151
-0.00106727
-0.000629604
0.00125852
6.72988e-05
-0.000240561
-0.000752392
0.00064829
-0.000374314
-0.00130151
0.00234052
-0.00102715
0.000411644
-0.000153576
7.27211e-05
-4.89949e-05
0.000779637
-0.000568922
-0.000508987
0.000214912
-0.000228338
0.00121587
-0.00270131
0.00306965
-0.00264735
0.000947633
7.90947e-05
-0.00117381
0.00141698
-0.00128588
0.00166155
-0.000115523
-0.00128648
0.0011808
-9.45645e-05
-0.000203071
-0.000452443
0.000640136
0.00102061
-0.0019226
-0.000646693
-0.000692273
0.00217085
-0.00127983
0.00167372
-0.00103371
-0.000389695
0.000123941
0.0006129
-0.00111723
0.00167198
-0.000143768
0.000522567
-0.00119421
-0.00208789
0.00411351
-0.00205475
-0.000463366
-0.00122767
-0.000474845
0.00225033
-0.000822111
-0.00076139
0.000903371
-0.000310572
0.000468319
0.000595277
-0.000785286
9.5357e-05
0.000609418
0.000237932
0.000152466
-0.000577559
0.000183884
-0.00226178
0.00167226
-0.00231674
0.000618555
0.0010494
0.00155169
0.00476736
-2.05388e-05
-6.88229e-05
-3.18593e-05
2.22358e-05
2.89495e-05
-5.30445e-05
-3.42803e-06
-5.0461e-05
-0.00012352
-8.36255e-05
8.43844e-06
-8.09652e-05
-5.03321e-06
-0.000106566
0.000166912
-0.00015566
-0.000126146
0.000141635
-0.000102771
-6.20688e-05
-0.000272164
0.00032555
-0.000214986
-5.82863e-05
2.5664e-05
9.11289e-05
-0.000114342
-0.000507449
0.000676604
-0.000574803
9.0888e-05
1.73837e-05
0.000310708
-0.000167256
0.00035219
-0.000370804
-0.000176237
0.000151624
-1.97285e-05
8.2088e-05
-0.000326575
0.000225013
-0.000351619
-0.000131934
-0.000134275
0.000726101
-0.00059702
0.000191121
7.43164e-05
-0.000865689
0.00102497
-0.000625828
0.0005145
-0.000257585
-0.000403921
0.000362321
0.000161784
-0.000651028
0.000533073
-0.000127575
-0.000288202
-0.000378391
5.62426e-05
0.000530082
-0.00050545
0.000301663
-0.000518492
0.000338812
0.000456781
-0.000658589
-0.000383881
0.000717567
-0.000203534
-4.40705e-05
-0.000610048
2.78364e-06
0.000740541
-0.00039455
-0.000637412
8.49968e-05
0.000461885
0.000248981
-0.000734762
-0.000289161
0.000481427
0.00139242
-0.00133621
0.0005665
-0.00149008
0.00177063
-0.000601036
0.000855543
-0.00147091
-0.000491424
0.00076684
0.000207604
0.000669762
0.000127748
-0.00105917
0.000924398
-0.000431466
-0.000994271
0.000950417
0.000183602
-0.000970101
-0.00055435
-0.00049844
0.00172833
-0.000395249
-0.0009411
0.000501038
0.000658641
-0.00119382
0.00145404
-0.00131924
0.000392164
-0.000720777
0.00154849
-8.64583e-05
-0.00184241
0.00154123
-0.000359155
6.29798e-05
-0.000275204
0.0011378
-0.00303619
0.000608267
0.00118061
-0.000562098
0.001116
-0.00122599
0.00186785
-0.000451455
-0.000628084
-0.000319842
-0.000976588
0.00119814
-0.00145793
-0.000216748
0.00194504
-0.000916875
0.00098097
-0.00164655
1.45155e-05
0.000857567
-0.000936536
0.000357827
0.00100197
-0.000755502
0.00186128
-0.00141049
-0.00143302
-0.000251271
0.00176531
-0.00107504
0.00187239
-0.00146252
-2.18214e-05
-0.000594758
-0.000453868
0.000552747
-0.000173921
-0.00123511
0.00158412
2.33674e-05
0.00070526
0.000199109
-0.00220802
0.000446696
0.00149634
-0.00129569
-0.000376352
0.000207306
0.000661914
0.000916837
1.19375e-05
-0.00265459
0.00154639
0.000359548
0.00104467
0.000247639
-0.00290586
0.00134465
-0.000742186
0.00162157
-0.00139332
-0.00236538
0.00354276
-0.00134914
0.000495543
0.00111171
-0.00356284
0.00158096
0.0019409
-0.000959418
-0.000168947
-0.00146352
0.00147528
-0.00295705
0.00204311
7.33192e-06
0.000475746
-5.10614e-05
-0.00137545
0.00358755
-0.00288666
-0.00271154
0.00219322
-0.000511488
0.00238455
-0.00185167
-0.000232654
0.000526142
0.000966864
0.000873828
-0.00166617
0.0014468
-0.000386337
-0.000868152
-0.000333262
-2.55699e-05
0.000675662
-0.0021863
0.00179571
-1.90587e-05
-0.00154234
-0.000946905
0.00157734
-0.00123942
0.000134512
-0.00139489
0.00104999
0.0021039
-0.00100764
0.00102654
0.00118347
9.59611e-06
0.000889147
-0.000239554
-0.00247619
0.00108263
-0.0017535
-0.00162016
0.00536327
-0.00398517
0.000895523
-0.0014653
0.00195704
-0.00173346
0.00278295
-0.00291173
0.00167532
-0.00126421
0.00114637
-0.00179282
0.00323119
-2.86654e-05
1.09164e-05
-7.15667e-05
-0.000174302
-9.31243e-05
6.92127e-05
-0.000172114
0.000104645
1.88721e-05
-7.02589e-05
4.52316e-05
-1.1636e-05
-0.000113922
-8.48495e-05
-0.00011153
-4.87727e-05
0.000111313
-0.000457616
0.000196107
-2.64622e-06
0.000124911
-0.000352966
9.87133e-05
0.000565809
-0.000460864
-0.000414317
0.000483426
-0.000578413
0.000102103
0.000573668
-0.000267799
-0.000182297
-0.000619127
-0.000175791
0.000131929
0.000486947
0.000457825
-0.0013021
0.000228063
-5.09774e-05
0.000702958
-0.00058051
0.00016709
-0.00100143
0.000964672
-0.000429535
0.000246798
-0.000469089
0.00052865
0.000164635
-0.001329
0.00132315
-0.00105478
0.000315484
0.000423626
-0.000750322
-0.000124844
0.000350379
0.00013842
-0.000358237
-0.000138045
0.000293377
0.000961324
-0.00190501
0.000571482
0.000562183
-0.000378198
0.000572382
-0.000558589
0.000407668
-0.00059958
-0.000987809
0.000846499
0.000575526
0.000665276
-0.00181022
-0.000981415
0.00028904
0.00238307
-0.00144615
0.000380109
-0.000834192
0.00104417
0.000297186
-0.000249897
-0.000409004
0.000929678
-0.00121674
0.000397426
-0.00151697
0.00147218
-0.0014663
0.00100773
0.000473562
-0.000765643
0.000224327
0.000344819
5.26774e-05
-0.000531429
0.000718625
-0.00182582
0.00126419
0.000486929
-0.00205407
0.00167797
-0.000455702
0.000465143
-0.00198156
0.000640094
0.00039191
0.000118528
0.000891313
0.000539952
-0.00207357
0.0006466
-0.000307998
-0.00051162
0.00108215
-0.00127197
0.00217785
-0.00256438
0.000572508
-0.00179982
0.000563452
0.0012362
0.00135443
-0.000443427
-8.18371e-06
0.000765467
-0.002212
0.00186854
-0.000858424
-0.00176496
0.0024361
-0.00395769
0.00405787
-0.00152854
0.00159575
-0.00135861
-0.000738941
4.51147e-06
-0.000420036
0.00151621
-0.00239872
0.000313016
0.00251177
-0.00407223
0.00262774
0.000496777
-0.000351601
0.000452347
4.23028e-05
-0.00191107
0.00173868
0.000240727
-0.00179433
0.00212931
-0.00247833
0.00044498
0.00255699
-0.00093198
-0.0024505
0.0033334
-0.00312438
0.00174619
-0.00312894
0.00129352
0.00277563
-0.00213149
0.00182516
-0.001959
0.00073534
0.00119363
-0.000836737
-0.00143959
-0.00195683
0.00465685
-0.000753202
-0.00374894
-0.000193364
0.00109217
0.0019244
2.85865e-05
0.00124664
-0.00384557
0.00345458
0.00040327
-0.00464394
0.00247783
0.00064183
-0.00507463
0.00748607
-0.00471842
-0.00177955
0.00370861
5.25803e-05
0.00084246
-0.000798038
-0.000606054
0.00134372
0.000894076
-0.00130178
-0.00306491
0.00363878
-0.00275279
0.000782059
0.00233201
-0.00118236
0.00154312
-0.00364602
0.00186148
-0.000809528
-0.000537495
-0.00230666
0.00432946
-0.00208526
-0.00153018
-0.000766261
0.0033926
-0.00166474
0.00186893
0.000123103
0.000131125
-0.00505308
0.00292837
0.0017669
-0.0013769
-0.00177424
0.00398335
0.00223239
-0.00294378
0.00192118
-0.00468621
0.00262226
-0.00353609
0.00330969
-0.000569996
-0.00547808
0.00704115
-0.00536573
0.000791341
0.00145246
-5.75899e-05
-0.00251152
0.00348638
-0.00125557
-0.00187852
0.00254445
0.00215648
-0.00127434
-0.0010525
0.000537814
0.00063628
-0.00131276
0.00106585
0.00410119
-8.56396e-05
-7.40357e-05
-9.3639e-05
0.000112798
-7.12402e-05
-0.000110768
-3.16999e-05
3.63228e-05
-0.000441273
0.000455355
-0.000247149
-0.000168982
-0.000129864
0.000441832
-0.000106324
-0.000385763
-0.00029618
0.000629094
-4.92926e-05
-0.000598927
-3.63986e-05
0.000389712
-0.000151206
-0.000638821
0.000473337
-0.000208583
-0.000576208
0.000201559
5.4885e-05
-0.000145273
0.000503946
-0.000890575
0.000947717
-0.000279127
-0.000199051
-5.66585e-05
-0.000678304
0.00118527
-5.87763e-05
-0.000542687
-0.00106234
0.000219743
0.000242399
0.00123781
-0.00190601
0.000335011
0.000265658
-0.00099335
-2.9739e-05
-0.000428547
0.00137724
-0.000498183
0.00108743
-0.00091322
9.84382e-06
0.00153455
-0.0011057
-0.000607602
-0.00093035
-0.000115279
0.000862607
-0.000366265
-0.000738454
0.00128461
-0.000295246
0.000661909
-0.000585311
-0.00065072
0.00112375
0.000524817
-0.000338029
-0.000411785
-0.00095874
-0.000190743
-0.00116874
0.00136553
0.00133143
6.50367e-05
-0.00145384
-0.000137933
-0.00043427
0.000706158
-0.00259886
0.00165343
0.000655899
-0.000955545
-0.000442741
0.00168036
0.000509732
-0.00210407
-0.00140742
0.00249924
0.00106908
-0.000961768
-0.00118625
0.00115762
0.000467938
-0.00608933
0.00346985
0.000434012
0.00221865
-0.00129759
-0.000438178
0.00115904
-0.00122535
-0.000783759
0.00104574
0.000463386
0.00120211
-0.00179315
-0.00193022
-0.000652111
0.00156842
0.00057475
0.00212687
-0.00225643
-7.70861e-05
-0.00106603
0.00137884