# vtk DataFile Version 1.0
Ion Density - Current Sheet
ASCII
DATASET STRUCTURED_POINTS
DIMENSIONS 256 128 1
ORIGIN 0 0 0
SPACING 0.15625 0.15625 1
POINT_DATA 32768
SCALARS rhoi float
LOOKUP_TABLE default
4.81554e-20
3.52228e-20
5.40285e-20
4.58994e-20
5.6285e-20
6.93026e-20
9.9081e-20
5.50978e-20
6.60048e-20
4.74367e-20
7.07242e-20
7.75946e-20
5.95727e-20
8.03728e-20
6.63816e-20
5.71308e-20
7.49806e-20
9.07596e-20
5.07068e-20
5.90078e-20
1.01386e-19
8.78548e-20
7.66432e-20
6.14548e-20
7.09974e-20
5.99028e-20
3.30252e-20
7.64108e-20
5.97139e-20
6.14189e-20
5.93753e-20
8.55385e-20
7.36756e-20
1.03971e-19
6.27039e-20
5.64436e-20
3.78743e-20
8.58372e-20
1.12518e-19
8.7635e-20
5.55331e-20
4.53741e-20
6.24827e-20
5.80961e-20
5.58925e-20
6.03988e-20
6.4224e-20
8.88742e-20
7.76561e-20
7.83403e-20
6.46999e-20
4.98978e-20
7.04968e-20
8.75608e-20
5.77182e-20
6.8596e-20
5.97388e-20
3.77713e-20
4.76712e-20
7.11897e-20
8.32357e-20
6.44517e-20
6.83818e-20
6.81863e-20
4.78729e-20
1.02263e-19
1.04942e-19
5.87899e-20
9.22101e-20
5.4276e-20
5.24694e-20
6.90257e-20
3.27338e-20
2.79085e-20
2.89114e-20
2.67808e-20
5.77117e-20
6.75313e-20
6.4233e-20
4.1418e-20
6.35606e-20
9.20853e-20
9.96287e-20
8.6191e-20
1.32129e-19
8.23878e-20
7.92279e-20
9.21077e-20
6.54032e-20
9.03282e-20
8.03817e-20
5.27137e-20
6.59586e-20
7.94432e-20
9.7096e-20
1.53662e-19
5.19542e-20
5.72515e-20
7.38375e-20
6.72597e-20
6.39641e-20
6.35839e-20
6.97228e-20
5.37649e-20
5.68943e-20
6.93916e-20
5.082e-20
7.35627e-20
6.14867e-20
4.3165e-20
4.05651e-20
7.26556e-20
6.62039e-20
1.00486e-19
9.56909e-20
4.3187e-20
8.94961e-20
5.03299e-20
5.32917e-20
9.46415e-20
8.30486e-20
5.53654e-20
9.17835e-20
8.35887e-20
3.67059e-20
7.08388e-20
7.43311e-20
8.76958e-20
8.86624e-20
5.95499e-20
5.03808e-20
8.84998e-20
7.13309e-20
5.70039e-20
5.89716e-20
9.72849e-20
7.43612e-20
5.51405e-20
7.11856e-20
5.22527e-20
4.70701e-20
3.33594e-20
3.88301e-20
7.68481e-20
5.26868e-20
1.01746e-19
8.06522e-20
5.71769e-20
6.64999e-20
6.93012e-20
7.3015e-20
5.42618e-20
4.92493e-20
5.12665e-20
7.44076e-20
1.15471e-19
1.83131e-20
6.05471e-20
9.74733e-20
5.97612e-20
8.74312e-20
5.95741e-20
3.75782e-20
7.49057e-20
7.87558e-20
1.17834e-19
4.40327e-20
6.28328e-20
8.33552e-20
7.25633e-20
8.87136e-20
4.04324e-20
7.5898e-20
5.33597e-20
6.27348e-20
8.60575e-20
7.65574e-20
8.42932e-20
3.11747e-20
5.06026e-20
7.32962e-20
3.78831e-20
6.31621e-20
7.17657e-20
5.34519e-20
4.71344e-20
5.95971e-20
8.37426e-20
6.8413e-20
4.90539e-20
8.07826e-20
9.32008e-20
5.90855e-20
9.45632e-20
5.84535e-20
3.47881e-20
5.42731e-20
3.00333e-20
4.5992e-20
9.53666e-20
3.75171e-20
6.49147e-20
6.6196e-20
5.35954e-20
7.13549e-20
8.45587e-20
6.90325e-20
3.50815e-20
9.54895e-20
5.31006e-20
1.06708e-19
2.25409e-20
8.19828e-20
4.49791e-20
6.25964e-20
5.85447e-20
6.18327e-20
7.3345e-20
6.43052e-20
7.65228e-20
4.42192e-20
7.16146e-20
8.25756e-20
6.82025e-20
8.54619e-20
3.74383e-20
5.60981e-20
9.67789e-20
3.84936e-20
6.70308e-20
5.51937e-20
9.03724e-20
9.70973e-20
7.27578e-20
6.20135e-20
6.71073e-20
5.96204e-20
5.22575e-20
8.78412e-20
5.44985e-20
6.09306e-20
5.65223e-20
7.21787e-20
7.63976e-20
4.04454e-20
3.50575e-20
7.86217e-20
8.05641e-20
7.47721e-20
2.7969e-20
3.51353e-20
6.37182e-20
3.01041e-20
7.31659e-20
7.51532e-20
6.69613e-20
1.16147e-19
9.25711e-20
1.34694e-19
7.8992e-20
1.14107e-19
1.27684e-19
1.23359e-19
1.74145e-19
1.49344e-19
1.3645e-19
1.19479e-19
1.58806e-19
9.89774e-20
1.54554e-19
7.26585e-20
9.42041e-20
1.61357e-19
1.00814e-19
1.28437e-19
1.34688e-19
1.33143e-19
1.25813e-19
9.22716e-20
1.10007e-19
1.04674e-19
1.45939e-19
9.77783e-20
1.34574e-19
9.77154e-20
1.02941e-19
1.147e-19
1.32416e-19
1.06753e-19
1.18133e-19
1.21646e-19
1.11898e-19
8.91045e-20
1.26698e-19
1.42944e-19
1.00005e-19
1.25747e-19
9.86488e-20
8.34632e-20
8.99858e-20
1.1135e-19
1.4384e-19
1.03014e-19
1.55866e-19
1.17035e-19
1.31903e-19
1.33479e-19
1.27151e-19
7.78211e-20
1.31692e-19
1.11983e-19
1.06961e-19
1.67514e-19
1.19264e-19
8.19855e-20
7.52491e-20
9.90248e-20
1.16251e-19
1.32278e-19
1.45104e-19
1.61169e-19
1.4641e-19
1.04877e-19
1.00249e-19
1.12615e-19
1.17091e-19
1.21179e-19
1.24408e-19
9.47238e-20
1.29302e-19
1.11763e-19
8.82519e-20
1.04049e-19
1.12332e-19
1.1609e-19
1.34557e-19
1.40937e-19
1.31203e-19
1.16881e-19
1.50784e-19
9.88624e-20
9.88566e-20
1.39173e-19
1.03972e-19
1.41201e-19
9.88992e-20
1.01434e-19
9.81893e-20
1.15587e-19
7.7604e-20
9.98978e-20
1.33877e-19
1.13576e-19
8.71773e-20
1.34386e-19
1.2868e-19
1.14345e-19
9.52742e-20
1.17602e-19
1.37644e-19
9.48784e-20
1.52906e-19
1.14559e-19
1.19636e-19
1.7242e-19
7.78597e-20
1.03007e-19
1.46944e-19
1.12518e-19
1.24834e-19
1.33998e-19
1.60367e-19
1.14198e-19
1.20855e-19
1.74999e-19
1.19206e-19
1.2134e-19
1.19271e-19
1.22457e-19
1.29551e-19
8.6944e-20
1.13788e-19
1.47386e-19
1.52645e-19
1.21698e-19
6.96359e-20
1.22286e-19
1.05478e-19
1.14233e-19
1.08418e-19
1.06317e-19
1.96435e-19
1.43704e-19
1.2377e-19
1.07724e-19
1.49937e-19
1.17718e-19
1.07104e-19
1.31541e-19
7.16224e-20
1.85496e-19
1.93613e-19
1.17448e-19
1.70291e-19
1.29725e-19
1.2321e-19
1.24206e-19
1.71314e-19
1.49028e-19
1.14677e-19
1.13393e-19
5.59149e-20
9.24287e-20
9.70378e-20
9.1212e-20
8.92516e-20
8.87854e-20
7.23192e-20
8.16074e-20
1.06356e-19
1.34801e-19
1.2509e-19
1.02047e-19
8.9247e-20
9.20764e-20
1.11401e-19
1.38379e-19
8.75075e-20
1.54808e-19
8.76674e-20
9.5788e-20
1.5449e-19
1.22843e-19
1.96946e-19
1.61665e-19
1.21431e-19
1.16111e-19
8.86427e-20
1.27605e-19
1.1851e-19
1.17103e-19
1.23203e-19
8.15847e-20
8.90321e-20
1.3143e-19
1.24474e-19
1.10918e-19
7.35731e-20
1.41708e-19
1.26356e-19
7.78793e-20
1.63742e-19
1.17791e-19
1.06885e-19
1.17964e-19
7.6145e-20
1.10783e-19
1.59136e-19
1.01519e-19
1.75654e-19
1.24582e-19
1.72186e-19
7.25626e-20
1.78758e-19
1.35434e-19
9.41723e-20
1.22248e-19
1.40232e-19
1.03752e-19
1.34015e-19
9.29563e-20
1.07916e-19
9.84734e-20
1.19798e-19
1.57754e-19
1.15732e-19
1.76661e-19
1.36189e-19
1.42372e-19
1.49906e-19
1.23953e-19
1.25538e-19
9.34236e-20
1.66843e-19
1.40196e-19
1.09395e-19
7.69709e-20
1.01419e-19
7.96311e-20
2.16184e-19
1.91136e-19
7.65344e-20
9.59721e-20
9.49099e-20
1.00896e-19
1.8184e-19
9.92745e-20
1.14228e-19
1.46762e-19
9.55673e-20
1.38728e-19
7.48608e-20
8.18792e-20
1.07424e-19
1.30275e-19
7.62928e-20
8.66054e-20
1.08801e-19
1.03156e-19
1.2276e-19
8.00349e-20
1.10508e-19
2.95418e-19
1.54277e-19
1.49463e-19
2.11375e-19
2.6692e-19
1.97442e-19
2.34676e-19
2.50973e-19
2.62568e-19
2.4569e-19
9.1691e-20
2.03424e-19
1.95452e-19
1.48564e-19
2.06718e-19
2.27676e-19
1.76467e-19
1.85622e-19
2.15681e-19
1.94003e-19
1.76088e-19
2.29595e-19
9.96605e-20
1.89834e-19
1.71948e-19
3.32906e-19
1.50964e-19
1.81462e-19
1.77597e-19
1.65203e-19
2.26823e-19
2.63385e-19
2.5611e-19
1.39713e-19
2.39119e-19
2.01345e-19
2.12209e-19
2.22331e-19
2.49569e-19
1.87627e-19
2.62186e-19
2.02751e-19
1.74253e-19
2.207e-19
1.55826e-19
2.44735e-19
1.93812e-19
2.20181e-19
2.00812e-19
1.72898e-19
2.90613e-19
2.10378e-19
1.82728e-19
1.46618e-19
1.38727e-19
1.33755e-19
2.03809e-19
2.25728e-19
1.68004e-19
2.48551e-19
2.45621e-19
1.85991e-19
1.82676e-19
2.25122e-19
1.88308e-19
1.65172e-19
2.14992e-19
1.3963e-19
1.76878e-19
1.97113e-19
2.2032e-19
2.891e-19
2.28506e-19
2.27908e-19
2.04979e-19
1.90024e-19
2.30613e-19
1.15931e-19
1.85382e-19
1.78633e-19
1.77046e-19
1.74184e-19
2.37683e-19
1.933e-19
2.66054e-19
1.84439e-19
1.18032e-19
2.13429e-19
2.2039e-19
1.29377e-19
2.42003e-19
1.41831e-19
2.54708e-19
2.06792e-19
2.15578e-19
3.08925e-19
1.87363e-19
1.57647e-19
2.10047e-19
1.69169e-19
2.18117e-19
1.7566e-19
2.18226e-19
2.4844e-19
1.87263e-19
1.36669e-19
2.0147e-19
2.57475e-19
2.20949e-19
2.32892e-19
2.74195e-19
2.52481e-19
2.04159e-19
1.83264e-19
2.58028e-19
1.48919e-19
2.25636e-19
2.84887e-19
1.41553e-19
1.63589e-19
2.0247e-19
2.3651e-19
1.84546e-19
1.48889e-19
1.5537e-19
1.31125e-19
1.83085e-19
3.08514e-19
2.15456e-19
1.11152e-19
2.20824e-19
1.11631e-19
1.63041e-19
2.06301e-19
1.61408e-19
2.33273e-19
2.03779e-19
2.19839e-19
1.73583e-19
1.36407e-19
2.74739e-19
1.74185e-19
1.97184e-19
1.91658e-19
1.64131e-19
2.90967e-19
3.41528e-19
1.86666e-19
2.01595e-19
2.051e-19
2.44407e-19
2.94525e-19
2.82605e-19
2.69467e-19
2.00558e-19
2.2517e-19
2.46256e-19
2.72599e-19
2.01317e-19
3.43539e-19
2.38264e-19
1.68609e-19
1.5784e-19
1.2709e-19
2.04563e-19
1.31425e-19
2.2599e-19
1.99337e-19
1.91749e-19
9.82876e-20
1.80744e-19
1.68403e-19
2.36822e-19
2.34004e-19
1.98174e-19
1.96254e-19
1.44944e-19
2.33262e-19
1.90621e-19
3.46412e-19
1.68176e-19
1.90425e-19
2.65381e-19
2.11853e-19
2.18915e-19
2.33792e-19
2.09274e-19
3.2707e-19
2.85144e-19
2.41392e-19
2.27989e-19
2.09679e-19
2.46225e-19
2.72183e-19
2.06393e-19
1.55152e-19
2.09301e-19
2.18051e-19
1.50166e-19
1.31183e-19
1.6935e-19
1.83202e-19
1.89697e-19
2.64178e-19
2.49015e-19
2.19095e-19
1.84253e-19
1.71796e-19
2.60366e-19
2.40978e-19
2.51434e-19
1.94974e-19
2.11599e-19
2.6212e-19
2.43459e-19
1.70056e-19
2.11443e-19
2.16457e-19
3.06989e-19
1.70357e-19
1.52061e-19
2.6373e-19
1.74182e-19
3.17828e-19
1.20465e-19
2.1485e-19
1.17776e-19
1.97923e-19
2.02856e-19
1.8404e-19
2.31093e-19
2.2578e-19
1.24563e-19
2.43738e-19
2.35646e-19
1.71638e-19
2.0048e-19
3.09279e-19
1.555e-19
2.30889e-19
1.64689e-19
2.53365e-19
2.0019e-19
2.25952e-19
2.14883e-19
2.42665e-19
2.12811e-19
1.18616e-19
1.90819e-19
1.8733e-19
1.5286e-19
1.49951e-19
2.39377e-19
1.49976e-19
2.05358e-19
1.68178e-19
4.72406e-19
2.98381e-19
4.92478e-19
4.43336e-19
4.23864e-19
3.79362e-19
3.49043e-19
4.48708e-19
3.29753e-19
3.06374e-19
5.52053e-19
3.60548e-19
5.55381e-19
4.24806e-19
5.00859e-19
3.54986e-19
5.44725e-19
3.71573e-19
3.9091e-19
2.73836e-19
5.48694e-19
4.19602e-19
2.78295e-19
2.90136e-19
4.64379e-19
5.91853e-19
3.71797e-19
3.68265e-19
3.68098e-19
3.45786e-19
3.69403e-19
4.07887e-19
3.16615e-19
4.70131e-19
2.3811e-19
2.08026e-19
2.65667e-19
4.36367e-19
3.01911e-19
4.3784e-19
3.19241e-19
2.09637e-19
2.34829e-19
4.52029e-19
2.82467e-19
3.05041e-19
4.11735e-19
3.56063e-19
3.52706e-19
3.86438e-19
4.84267e-19
4.09579e-19
4.20824e-19
4.90568e-19
5.02657e-19
7.06369e-19
3.57987e-19
3.03294e-19
2.96883e-19
3.56753e-19
5.06597e-19
2.53741e-19
3.32919e-19
3.70177e-19
3.4162e-19
2.54432e-19
3.97801e-19
4.89772e-19
3.00773e-19
4.71273e-19
4.78876e-19
3.49761e-19
2.6501e-19
3.35752e-19
4.51745e-19
2.91897e-19
2.46706e-19
2.42356e-19
1.85505e-19
2.28713e-19
3.22209e-19
2.35297e-19
4.2132e-19
3.80849e-19
2.46722e-19
3.01899e-19
3.91367e-19
3.92561e-19
3.39426e-19
3.31407e-19
5.08935e-19
5.26448e-19
6.80501e-19
5.24255e-19
4.41554e-19
2.85181e-19
2.57344e-19
3.51797e-19
2.9698e-19
3.26313e-19
3.71689e-19
2.82747e-19
4.80442e-19
4.52638e-19
3.67107e-19
4.5386e-19
3.01471e-19
1.35162e-19
3.06483e-19
3.38911e-19
4.51125e-19
4.3869e-19
4.75824e-19
2.39552e-19
4.73679e-19
4.54211e-19
4.49089e-19
2.74085e-19
3.28964e-19
2.76067e-19
3.92328e-19
5.26193e-19
4.54384e-19
3.8816e-19
4.25304e-19
4.02482e-19
2.09574e-19
3.47243e-19
3.43964e-19
4.7215e-19
3.73758e-19
4.10123e-19
5.54389e-19
4.23769e-19
4.18706e-19
5.38652e-19
3.17926e-19
4.58467e-19
5.82602e-19
3.70478e-19
4.77304e-19
2.16909e-19
3.31253e-19
3.07373e-19
4.77789e-19
4.07588e-19
3.07443e-19
4.06356e-19
3.09109e-19
3.82673e-19
3.1895e-19
3.53194e-19
4.21954e-19
3.92443e-19
3.91798e-19
4.51805e-19
4.61598e-19
2.44362e-19
4.42277e-19
5.49396e-19
3.31004e-19
3.44844e-19
3.02711e-19
3.88955e-19
3.61946e-19
3.36251e-19
3.28568e-19
3.3565e-19
3.93768e-19
3.66033e-19
4.06147e-19
3.23123e-19
2.99568e-19
2.84375e-19
3.65041e-19
3.64362e-19
6.09795e-19
4.37367e-19
2.57034e-19
5.93369e-19
3.46806e-19
1.84311e-19
3.74671e-19
5.63077e-19
2.8557e-19
5.38122e-19
3.37282e-19
4.72773e-19
3.94739e-19
2.0821e-19
6.26635e-19
3.79106e-19
4.14321e-19
4.40316e-19
4.23999e-19
2.98499e-19
3.84553e-19
2.37105e-19
4.136e-19
3.26208e-19
4.57122e-19
3.71648e-19
4.27512e-19
2.90716e-19
4.98027e-19
4.43023e-19
4.55501e-19
3.70503e-19
3.44593e-19
5.87281e-19
3.45612e-19
4.58682e-19
5.22776e-19
3.71148e-19
3.31816e-19
4.81309e-19
3.47756e-19
2.37791e-19
4.07662e-19
5.53664e-19
3.95892e-19
4.50785e-19
4.61267e-19
3.22554e-19
3.52547e-19
2.25305e-19
4.13028e-19
2.01917e-19
1.8373e-19
3.91689e-19
3.94395e-19
3.96743e-19
3.95506e-19
5.7585e-19
5.48104e-19
3.01311e-19
2.87246e-19
5.47297e-19
3.04864e-19
5.08824e-19
4.21867e-19
4.81774e-19
2.12848e-19
4.57548e-19
3.02715e-19
2.08035e-19
2.82218e-19
3.42156e-19
4.60437e-19
2.17697e-19
3.38054e-19
4.94129e-19
4.15404e-19
2.95464e-19
3.77436e-19
3.44505e-19
4.98898e-19
7.05602e-19
5.72127e-19
6.92605e-19
9.35187e-19
8.06906e-19
8.12653e-19
6.85169e-19
5.25505e-19
5.55021e-19
4.67324e-19
6.61578e-19
8.88776e-19
1.0405e-18
7.56648e-19
7.24444e-19
9.08024e-19
5.17674e-19
6.3504e-19
7.15724e-19
5.99352e-19
6.65858e-19
8.50801e-19
6.36226e-19
3.48547e-19
8.98893e-19
1.09334e-18
6.1761e-19
9.90625e-19
5.71833e-19
5.90484e-19
8.44774e-19
7.48288e-19
5.34768e-19
8.28211e-19
8.89064e-19
5.23266e-19
7.6269e-19
3.06075e-19
8.0564e-19
5.85657e-19
6.35694e-19
8.12417e-19
1.02202e-18
6.14836e-19
7.51179e-19
5.32953e-19
5.56961e-19
5.45771e-19
6.3814e-19
4.81363e-19
3.76144e-19
5.45924e-19
5.78891e-19
7.69201e-19
7.58988e-19
5.19329e-19
6.91497e-19
4.08662e-19
7.91352e-19
4.35419e-19
6.89014e-19
3.0016e-19
5.55379e-19
7.14018e-19
9.21282e-19
8.03007e-19
5.33022e-19
7.29983e-19
5.87539e-19
6.85213e-19
6.4119e-19
6.63289e-19
7.49759e-19
6.3138e-19
4.49335e-19
5.48021e-19
5.55252e-19
5.76739e-19
4.48176e-19
6.34993e-19
7.61363e-19
7.61899e-19
4.33749e-19
9.58543e-19
5.58876e-19
4.16578e-19
7.28969e-19
6.78903e-19
6.86756e-19
1.07924e-18
7.30994e-19
7.01258e-19
5.66235e-19
6.3174e-19
8.28732e-19
5.28178e-19
6.18793e-19
3.15461e-19
6.04e-19
8.02975e-19
7.3112e-19
5.70189e-19
8.50565e-19
6.2732e-19
7.82262e-19
8.11085e-19
9.59584e-19
3.83852e-19
7.43318e-19
6.28418e-19
8.11719e-19
8.79928e-19
6.72637e-19
5.29489e-19
4.55112e-19
7.69208e-19
6.47326e-19
4.92661e-19
3.80074e-19
7.38809e-19
6.26903e-19
4.48552e-19
4.52557e-19
5.61609e-19
6.22301e-19
6.94113e-19
6.13186e-19
3.50783e-19
8.22102e-19
5.78207e-19
5.07685e-19
8.90003e-19
7.31801e-19
6.33849e-19
7.7399e-19
4.9229e-19
7.58166e-19
3.97546e-19
8.47102e-19
7.80191e-19
6.55112e-19
8.10677e-19
9.56904e-19
6.68063e-19
8.40395e-19
5.27511e-19
5.83143e-19
6.66812e-19
2.28685e-19
4.45112e-19
6.05219e-19
6.60812e-19
7.12105e-19
8.00325e-19
8.35947e-19
6.34032e-19
3.7326e-19
9.03474e-19
1.10606e-18
8.34067e-19
7.89344e-19
5.86192e-19
8.5465e-19
7.68806e-19
9.44441e-19
7.40035e-19
4.18453e-19
5.6384e-19
7.89992e-19
1.12505e-18
3.30422e-19
5.6748e-19
5.93345e-19
7.72395e-19
5.76079e-19
8.81493e-19
5.65093e-19
5.98454e-19
5.36213e-19
4.85259e-19
5.52265e-19
6.17456e-19
5.43313e-19
6.66409e-19
5.6864e-19
4.90686e-19
4.4976e-19
6.36672e-19
1.0684e-18
4.88039e-19
7.93446e-19
5.25071e-19
7.77426e-19
7.99166e-19
5.24248e-19
5.36999e-19
6.97128e-19
8.49923e-19
7.36672e-19
4.32167e-19
6.34015e-19
5.49461e-19
6.73432e-19
5.42754e-19
5.07736e-19
6.36467e-19
7.55083e-19
7.91701e-19
5.42846e-19
7.65945e-19
6.48785e-19
4.68038e-19
6.03807e-19
4.70958e-19
5.52457e-19
1.07957e-18
6.30169e-19
6.0414e-19
6.74681e-19
8.59123e-19
8.20342e-19
4.84753e-19
6.3465e-19
5.80294e-19
7.62529e-19
9.19712e-19
4.99149e-19
6.05351e-19
9.78154e-19
6.62604e-19
6.59206e-19
5.49568e-19
5.72206e-19
8.78162e-19
7.85399e-19
5.86842e-19
5.73793e-19
5.0605e-19
9.30318e-19
7.50994e-19
8.64398e-19
4.73434e-19
6.41948e-19
8.75706e-19
8.42643e-19
6.93426e-19
7.79113e-19
5.98154e-19
4.227e-19
6.41765e-19
5.91475e-19
5.34593e-19
6.24854e-19
1.00983e-18
3.4317e-19
1.78061e-18
1.56691e-18
9.30872e-19
1.17724e-18
1.48781e-18
9.49072e-19
7.01153e-19
1.7217e-18
1.24064e-18
8.07791e-19
1.08702e-18
9.62442e-19
1.24878e-18
1.21753e-18
1.00602e-18
1.4783e-18
9.75418e-19
1.58932e-18
1.06215e-18
1.57149e-18
1.42268e-18
1.35006e-18
1.07683e-18
9.77611e-19
8.95612e-19
1.27781e-18
1.12327e-18
1.78694e-18
1.37198e-18
1.41794e-18
1.03532e-18
1.50815e-18
1.61245e-18
1.67557e-18
1.43798e-18
1.44803e-18
1.28433e-18
8.29643e-19
7.924e-19
1.25545e-18
1.06017e-18
1.35882e-18
1.04833e-18
8.60428e-19
1.38862e-18
1.53645e-18
1.58058e-18
1.1929e-18
9.57726e-19
1.32448e-18
8.81615e-19
1.06649e-18
1.32671e-18
8.91801e-19
1.57839e-18
1.1638e-18
9.91106e-19
6.4867e-19
7.04243e-19
1.46172e-18
8.67936e-19
1.21928e-18
1.13992e-18
1.12728e-18
9.99221e-19
1.23877e-18
1.32304e-18
1.77418e-18
1.09715e-18
1.3236e-18
9.66934e-19
1.37766e-18
8.92999e-19
1.07804e-18
5.72729e-19
1.15664e-18
4.823e-19
9.15806e-19
1.06398e-18
1.26853e-18
7.34212e-19
1.14576e-18
1.05904e-18
1.35942e-18
1.0246e-18
1.51863e-18
9.9363e-19
1.21162e-18
8.76029e-19
1.78936e-18
1.0613e-18
1.22246e-18
1.23284e-18
9.70182e-19
8.64551e-19
1.60028e-18
9.03611e-19
1.0548e-18
9.90248e-19
1.37311e-18
2.03901e-18
8.69698e-19
9.6154e-19
1.12647e-18
1.07301e-18
1.15242e-18
1.65771e-18
1.30709e-18
1.35943e-18
8.80675e-19
1.37683e-18
1.42497e-18
1.53334e-18
1.78491e-18
1.08598e-18
1.04941e-18
1.20578e-18
1.10847e-18
1.2126e-18
1.40157e-18
1.04733e-18
1.06642e-18
1.61785e-18
1.55022e-18
1.52317e-18
1.65195e-18
6.98312e-19
9.51533e-19
1.01686e-18
1.51404e-18
1.55733e-18
1.04407e-18
1.20744e-18
1.89133e-18
1.75733e-18
1.31619e-18
1.62803e-18
1.13999e-18
1.53237e-18
1.01997e-18
7.229e-19
1.44926e-18
1.16355e-18
1.19069e-18
1.45418e-18
1.72511e-18
1.23531e-18
1.15012e-18
9.67411e-19
1.23959e-18
1.21394e-18
1.74588e-18
1.3515e-18
1.00243e-18
6.18541e-19
1.29414e-18
1.0545e-18
9.88439e-19
1.64433e-18
1.2335e-18
1.10522e-18
9.20595e-19
1.79519e-18
1.35474e-18
1.09828e-18
1.21021e-18
1.61807e-18
1.0564e-18
1.01372e-18
7.61422e-19
1.3953e-18
1.24348e-18
6.71614e-19
9.57179e-19
1.18604e-18
9.32819e-19
1.54805e-18
1.2994e-18
1.12117e-18
7.52627e-19
1.42473e-18
1.31713e-18
1.36403e-18
1.01748e-18
1.245e-18
9.1684e-19
1.41686e-18
1.68778e-18
1.36826e-18
1.16704e-18
2.10194e-18
1.29357e-18
1.1794e-18
8.45514e-19
1.5472e-18
1.3673e-18
1.39046e-18
1.01242e-18
1.22197e-18
1.74952e-18
9.35052e-19
1.2259e-18
1.19628e-18
1.12778e-18
1.74512e-18
6.94502e-19
9.60301e-19
8.87172e-19
7.5541e-19
1.25711e-18
1.26248e-18
1.24925e-18
1.02425e-18
1.02442e-18
1.31478e-18
1.72375e-18
7.43074e-19
1.10515e-18
1.24264e-18
1.57975e-18
1.50615e-18
1.31941e-18
1.35007e-18
1.53336e-18
1.04944e-18
1.35052e-18
1.44505e-18
1.42002e-18
1.31289e-18
1.76493e-18
1.24435e-18
1.15509e-18
1.19391e-18
1.38436e-18
1.0074e-18
1.10225e-18
1.1752e-18
7.92019e-19
1.02412e-18
1.31542e-18
1.1729e-18
1.05873e-18
1.37856e-18
1.39327e-18
1.44537e-18
1.37201e-18
1.73843e-18
1.46548e-18
9.25838e-19
1.37225e-18
1.15745e-18
1.35521e-18
9.70952e-19
7.73602e-19
1.45502e-18
1.10122e-18
3.39799e-18
1.44807e-18
3.16248e-18
1.61418e-18
2.05938e-18
2.77642e-18
2.66236e-18
1.53055e-18
1.82889e-18
1.86904e-18
1.44796e-18
2.53538e-18
2.22719e-18
1.7784e-18
3.13356e-18
1.75002e-18
2.23649e-18
1.38911e-18
1.8513e-18
3.1805e-18
1.83397e-18
2.06784e-18
1.24895e-18
1.95332e-18
2.56163e-18
3.18841e-18
1.57969e-18
3.54677e-18
2.06651e-18
2.63389e-18
2.20096e-18
1.99015e-18
1.68378e-18
1.36374e-18
2.41302e-18
2.6129e-18
3.30547e-18
1.46511e-18
1.67592e-18
2.65959e-18
1.87546e-18
2.32336e-18
2.0713e-18
2.35165e-18
1.22733e-18
2.32284e-18
2.88144e-18
1.96188e-18
2.36332e-18
1.05864e-18
2.91648e-18
1.89638e-18
1.75929e-18
2.16646e-18
1.46901e-18
1.60815e-18
1.61143e-18
1.72641e-18
2.46581e-18
1.82892e-18
2.26998e-18
1.77e-18
2.32142e-18
1.76828e-18
2.10655e-18
1.97088e-18
2.23595e-18
2.11946e-18
1.76619e-18
2.90391e-18
2.36763e-18
2.83708e-18
1.6622e-18
2.25842e-18
1.8364e-18
1.60955e-18
2.05295e-18
2.12095e-18
9.84439e-19
2.48243e-18
3.50258e-18
3.07292e-18
1.912e-18
2.28801e-18
1.22869e-18
2.44043e-18
1.55007e-18
2.71578e-18
2.0143e-18
1.93967e-18
3.47912e-18
2.94997e-18
1.80508e-18
2.19235e-18
2.02616e-18
1.75677e-18
1.62409e-18
2.2944e-18
1.72162e-18
1.86924e-18
3.5554e-18
2.9631e-18
2.03482e-18
2.41129e-18
1.13511e-18
1.38825e-18
1.09177e-18
2.27287e-18
2.45101e-18
3.20286e-18
3.02425e-18
2.53346e-18
3.68868e-18
2.16649e-18
2.84146e-18
1.80698e-18
1.50961e-18
2.47553e-18
1.73607e-18
2.37203e-18
1.77054e-18
2.27834e-18
2.39492e-18
2.6211e-18
1.72594e-18
1.71624e-18
1.75781e-18
2.76557e-18
1.98235e-18
2.10433e-18
2.6161e-18
2.29533e-18
3.02065e-18
4.18278e-18
1.97498e-18
2.25047e-18
1.27815e-18
2.34841e-18
2.17267e-18
2.70922e-18
2.33745e-18
3.16266e-18
3.2036e-18
1.59677e-18
2.36219e-18
2.57981e-18
1.61081e-18
1.74241e-18
1.91967e-18
2.71222e-18
2.24455e-18
2.41607e-18
2.21705e-18
2.79449e-18
2.33765e-18
1.94666e-18
1.15149e-18
1.67777e-18
1.89819e-18
1.31214e-18
2.37149e-18
2.79131e-18
2.04256e-18
1.90242e-18
1.79091e-18
1.85657e-18
1.9983e-18
1.93244e-18
1.91657e-18
1.83568e-18
2.16759e-18
1.63448e-18
1.17661e-18
2.04587e-18
2.21835e-18
2.4544e-18
1.92807e-18
2.23634e-18
1.6991e-18
3.01728e-18
1.83925e-18
2.34658e-18
1.65118e-18
1.80087e-18
2.70799e-18
1.33122e-18
2.19401e-18
1.87799e-18
2.7903e-18
2.57599e-18
1.5309e-18
2.68798e-18
2.34625e-18
1.10657e-18
2.41088e-18
2.0812e-18
2.11241e-18
2.00801e-18
2.81145e-18
1.52477e-18
1.41727e-18
1.64463e-18
2.65716e-18
3.08171e-18
1.79915e-18
3.03604e-18
2.07771e-18
2.06962e-18
2.22198e-18
3.27618e-18
1.62343e-18
2.90707e-18
1.66669e-18
1.70649e-18
2.78382e-18
2.59869e-18
1.92956e-18
3.51218e-18
1.92276e-18
2.67497e-18
2.57826e-18
2.21742e-18
1.89484e-18
2.18572e-18
1.30363e-18
1.42016e-18
1.84706e-18
1.7354e-18
3.22743e-18
2.78661e-18
2.11975e-18
2.11387e-18
1.88486e-18
2.51042e-18
3.38768e-18
1.62705e-18
2.81706e-18
2.07632e-18
2.71348e-18
2.59833e-18
2.61395e-18
1.53274e-18
2.41567e-18
1.7772e-18
2.56448e-18
1.77777e-18
3.71255e-18
1.46721e-18
2.30832e-18
1.14596e-18
2.30854e-18
1.4611e-18
2.35722e-18
1.7983e-18
2.25653e-18
2.21821e-18
5.03311e-18
3.98275e-18
4.11831e-18
3.84513e-18
4.63122e-18
3.43267e-18
5.0843e-18
4.62272e-18
2.42206e-18
4.75668e-18
3.11831e-18
3.65895e-18
3.12286e-18
5.61546e-18
5.41719e-18
3.88933e-18
6.8643e-18
6.24666e-18
3.16579e-18
4.61121e-18
3.11851e-18
3.94731e-18
3.90963e-18
4.35354e-18
4.17544e-18
2.06737e-18
2.88631e-18
4.86934e-18
3.04076e-18
3.43365e-18
2.43379e-18
3.82935e-18
2.60409e-18
3.52102e-18
6.0269e-18
5.6822e-18
4.04708e-18
2.06235e-18
4.90112e-18
3.14977e-18
4.85198e-18
4.27186e-18
5.36785e-18
5.28045e-18
4.6896e-18
4.14968e-18
5.18933e-18
3.98965e-18
5.97822e-18
4.57687e-18
3.58298e-18
3.61057e-18
5.03335e-18
5.27305e-18
3.4668e-18
3.57237e-18
6.07732e-18
2.99764e-18
3.86868e-18
4.24806e-18
5.14988e-18
5.13256e-18
3.45091e-18
6.11818e-18
3.43794e-18
4.18302e-18
2.38607e-18
5.9694e-18
2.7969e-18
4.51504e-18
4.02007e-18
4.53265e-18
3.59689e-18
5.57693e-18
4.17459e-18
3.2032e-18
4.78453e-18
4.66374e-18
3.31387e-18
4.98678e-18
4.18831e-18
4.14766e-18
5.74712e-18
3.11006e-18
4.40007e-18
3.46319e-18
4.19843e-18
5.24511e-18
7.39016e-18
3.80694e-18
4.04383e-18
4.57166e-18
4.95276e-18
2.4007e-18
5.91511e-18
4.74639e-18
2.32389e-18
3.85206e-18
4.23662e-18
3.22819e-18
5.0834e-18
3.94812e-18
5.1782e-18
4.75118e-18
4.25555e-18
3.60058e-18
3.85949e-18
3.21707e-18
4.77324e-18
4.58584e-18
3.259e-18
4.76765e-18
3.91358e-18
3.11527e-18
3.46028e-18
4.38835e-18
4.4701e-18
4.47721e-18
4.51586e-18
2.77139e-18
4.28543e-18
3.35708e-18
4.41851e-18
4.82848e-18
4.44948e-18
7.28205e-18
5.16053e-18
4.64905e-18
3.20189e-18
2.84884e-18
3.10705e-18
4.29763e-18
2.991e-18
3.34109e-18
4.51265e-18
3.11473e-18
4.04481e-18
3.91396e-18
4.89123e-18
3.81721e-18
2.85912e-18
3.77271e-18
4.4885e-18
4.91249e-18
6.29103e-18
3.73419e-18
3.66858e-18
2.22141e-18
3.755e-18
5.26916e-18
3.84238e-18
4.15113e-18
4.16899e-18
4.69748e-18
4.23222e-18
3.9782e-18
5.45798e-18
4.72399e-18
4.47892e-18
3.51124e-18
5.65643e-18
3.50708e-18
4.17792e-18
3.88621e-18
4.41241e-18
5.2028e-18
3.39144e-18
4.56461e-18
2.9744e-18
4.05588e-18
4.50795e-18
3.38452e-18
4.14984e-18
3.27655e-18
4.89396e-18
4.44354e-18
4.76078e-18
6.22799e-18
4.61007e-18
2.90746e-18
4.23715e-18
2.62261e-18
3.55563e-18
2.17294e-18
4.96972e-18
3.39818e-18
4.97491e-18
4.47974e-18
5.75585e-18
5.26244e-18
4.29385e-18
5.70262e-18
6.6643e-18
3.98243e-18
4.65099e-18
4.31363e-18
3.77679e-18
3.55165e-18
5.28437e-18
4.75183e-18
4.07629e-18
5.15713e-18
4.53479e-18
3.41175e-18
3.69892e-18
3.37791e-18
3.24459e-18
4.59787e-18
4.82182e-18
6.51189e-18
5.98106e-18
4.1926e-18
4.52977e-18
3.31596e-18
3.43267e-18
3.16648e-18
3.29027e-18
4.71137e-18
3.87128e-18
5.55284e-18
4.57907e-18
4.23861e-18
5.15188e-18
3.67928e-18
1.73647e-18
6.15245e-18
5.14324e-18
3.61443e-18
3.27278e-18
4.15424e-18
5.17169e-18
4.271e-18
4.14309e-18
3.52348e-18
4.44312e-18
1.94944e-18
3.29176e-18
5.01807e-18
4.20165e-18
4.85041e-18
5.94178e-18
4.64599e-18
4.69767e-18
2.47545e-18
4.41395e-18
4.33473e-18
2.84789e-18
1.48026e-18
2.80443e-18
4.55705e-18
4.19784e-18
5.20506e-18
4.17945e-18
5.0048e-18
4.74253e-18
3.40544e-18
1.00632e-17
5.42171e-18
7.14359e-18
7.57482e-18
7.08351e-18
7.74283e-18
7.47899e-18
7.1663e-18
5.83848e-18
7.5127e-18
7.37501e-18
7.8723e-18
6.39469e-18
8.70851e-18
7.49861e-18
7.73876e-18
5.77665e-18
7.04835e-18
8.00862e-18
7.04336e-18
8.94218e-18
8.20065e-18
5.76834e-18
8.88412e-18
1.27018e-17
7.1329e-18
7.63727e-18
7.3712e-18
7.83552e-18
6.33333e-18
7.25388e-18
7.57446e-18
9.57344e-18
1.04305e-17
6.34333e-18
5.07182e-18
8.20505e-18
8.01993e-18
8.54041e-18
7.8308e-18
6.27743e-18
8.48901e-18
5.05236e-18
9.63777e-18
5.4162e-18
1.15805e-17
9.06808e-18
5.30202e-18
9.70966e-18
7.41272e-18
6.13988e-18
6.66963e-18
5.49061e-18
9.74929e-18
7.45768e-18
6.27344e-18
9.70508e-18
7.86549e-18
8.71434e-18
6.56036e-18
8.01442e-18
5.12454e-18
5.97504e-18
4.14212e-18
6.31761e-18
6.65342e-18
5.98085e-18
7.0911e-18
5.16399e-18
3.66316e-18
8.75263e-18
8.70991e-18
1.22383e-17
1.08697e-17
6.5269e-18
7.86789e-18
7.86459e-18
8.9974e-18
7.48946e-18
8.57871e-18
8.13704e-18
9.20774e-18
8.31199e-18
9.06072e-18
5.47776e-18
6.93694e-18
9.52122e-18
4.54656e-18
1.07245e-17
1.11495e-17
1.20842e-17
1.02339e-17
8.77872e-18
1.05069e-17
6.53078e-18
9.40661e-18
7.73191e-18
7.38513e-18
6.0987e-18
5.32534e-18
4.07477e-18
1.23762e-17
7.82079e-18
4.69586e-18
4.67785e-18
7.40318e-18
8.28216e-18
7.06822e-18
6.62847e-18
7.29006e-18
7.14671e-18
7.72017e-18
8.57573e-18
8.33208e-18
7.86251e-18
5.73695e-18
6.53317e-18
7.09214e-18
8.14932e-18
5.01664e-18
9.68684e-18
7.73949e-18
9.16614e-18
7.6984e-18
1.29262e-17
1.06578e-17
9.01189e-18
6.0054e-18
9.28722e-18
5.1359e-18
6.11938e-18
6.60288e-18
6.50803e-18
1.10223e-17
6.53545e-18
6.59277e-18
8.6093e-18
1.03489e-17
7.55318e-18
5.11495e-18
8.95842e-18
9.36866e-18
1.04311e-17
7.31082e-18
7.70529e-18
5.80572e-18
8.02234e-18
5.56419e-18
8.29036e-18
9.21262e-18
7.68203e-18
7.12286e-18
1.06393e-17
7.4704e-18
8.75085e-18
7.96054e-18
7.73563e-18
5.91354e-18
6.76897e-18
1.12269e-17
6.0868e-18
6.82956e-18
6.53051e-18
6.7496e-18
6.95243e-18
6.96119e-18
9.93628e-18
7.59465e-18
1.06345e-17
6.04671e-18
1.00526e-17
9.61189e-18
8.12731e-18
8.38713e-18
7.28814e-18
9.49861e-18
6.97591e-18
6.3099e-18
6.87321e-18
5.80337e-18
8.43218e-18
1.06569e-17
1.0891e-17
1.13004e-17
8.95628e-18
7.21216e-18
7.36419e-18
1.30319e-17
7.65697e-18
4.86212e-18
1.1996e-17
7.82725e-18
6.56558e-18
7.24964e-18
8.86688e-18
5.67967e-18
6.288e-18
8.76752e-18
9.31461e-18
8.9588e-18
6.16475e-18
1.00549e-17
6.61832e-18
7.00719e-18
1.21061e-17
7.78905e-18
7.99146e-18
9.23982e-18
7.62946e-18
7.76099e-18
1.02372e-17
6.33953e-18
6.50298e-18
7.79224e-18
6.59775e-18
8.78539e-18
6.71773e-18
6.91157e-18
1.23153e-17
9.03531e-18
9.02708e-18
6.24619e-18
6.93715e-18
7.7169e-18
5.36431e-18
9.77157e-18
7.88481e-18
8.23328e-18
7.6914e-18
8.95694e-18
7.54367e-18
8.0893e-18
9.77735e-18
4.38002e-18
6.67602e-18
6.68104e-18
9.47039e-18
6.76032e-18
1.00328e-17
8.95523e-18
4.08661e-18
5.72201e-18
4.58784e-18
8.97121e-18
5.06451e-18
5.12262e-18
7.03802e-18
5.43032e-18
1.21321e-17
1.0137e-17
5.46857e-18
6.25086e-18
9.23921e-18
1.00267e-17
6.48741e-18
9.36541e-18
1.54151e-17
1.24067e-17
1.21887e-17
1.3181e-17
1.05642e-17
1.66642e-17
1.38315e-17
1.14549e-17
2.07041e-17
1.05855e-17
7.82642e-18
1.26554e-17
1.8873e-17
1.69596e-17
1.32898e-17
1.09697e-17
2.06428e-17
1.42309e-17
2.15379e-17
2.03453e-17
1.75494e-17
1.79822e-17
1.86327e-17
1.86771e-17
1.92734e-17
1.42364e-17
1.68905e-17
8.75845e-18
8.32108e-18
2.22874e-17
1.18689e-17
1.2565e-17
1.73536e-17
1.21893e-17
1.50338e-17
1.39242e-17
1.48866e-17
2.20623e-17
1.53683e-17
1.24786e-17
1.53008e-17
1.74116e-17
1.38107e-17
1.42361e-17
1.38341e-17
1.63523e-17
1.50005e-17
2.0172e-17
1.58104e-17
1.1631e-17
7.84544e-18
1.86346e-17
1.21721e-17
2.05875e-17
1.19724e-17
1.35433e-17
1.28297e-17
1.54271e-17
2.03295e-17
1.67358e-17
1.9873e-17
1.29737e-17
7.65707e-18
1.28011e-17
1.40248e-17
1.23041e-17
1.8044e-17
1.88846e-17
1.88984e-17
1.28064e-17
1.37769e-17
1.35833e-17
1.40592e-17
1.48034e-17
1.39457e-17
1.41803e-17
1.77408e-17
1.34899e-17
1.14096e-17
1.99269e-17
1.46664e-17
1.66237e-17
1.47687e-17
1.17644e-17
1.62485e-17
1.90876e-17
8.17661e-18
1.18843e-17
1.78024e-17
1.00523e-17
1.19729e-17
2.14382e-17
1.08974e-17
1.24419e-17
1.57912e-17
9.76794e-18
1.93703e-17
1.26834e-17
1.62126e-17
1.18128e-17
1.19007e-17
2.04682e-17
1.64151e-17
1.01366e-17
1.35281e-17
1.18688e-17
2.38501e-17
1.6281e-17
1.89741e-17
2.31319e-17
1.44042e-17
1.31663e-17
1.85467e-17
1.64774e-17
1.22643e-17
8.35017e-18
1.16947e-17
9.94468e-18
1.48147e-17
1.86713e-17
1.99673e-17
1.12366e-17
1.63242e-17
1.74704e-17
1.23648e-17
1.82448e-17
1.16933e-17
1.4407e-17
1.2548e-17
1.19116e-17
1.18217e-17
1.27275e-17
1.64895e-17
1.93924e-17
8.98523e-18
1.21134e-17
1.85866e-17
1.4409e-17
1.4978e-17
1.75081e-17
1.98701e-17
1.83601e-17
1.50583e-17
9.32397e-18
1.67693e-17
1.9812e-17
1.27031e-17
1.38773e-17
2.73828e-17
7.0847e-18
5.35081e-18
1.55462e-17
1.53278e-17
1.7671e-17
1.33172e-17
1.56538e-17
1.44663e-17
9.43898e-18
1.65861e-17
1.70786e-17
1.67265e-17
1.08336e-17
9.01741e-18
2.57702e-17
1.80242e-17
1.31071e-17
1.66456e-17
9.08095e-18
1.33569e-17
1.22386e-17
1.26344e-17
1.32503e-17
9.83327e-18
1.13676e-17
1.24687e-17
1.30565e-17
1.00176e-17
1.48612e-17
1.23139e-17
2.01601e-17
1.06506e-17
1.75517e-17
2.03339e-17
2.22058e-17
1.29847e-17
1.46033e-17
1.82922e-17
2.11612e-17
1.40798e-17
2.04722e-17
7.64169e-18
1.09609e-17
1.50807e-17
9.18594e-18
1.40612e-17
1.04931e-17
1.51559e-17
9.2273e-18
1.41611e-17
1.51697e-17
1.5063e-17