# vtk DataFile Version 1.0
Ion Density - Current Sheet
ASCII
DATASET STRUCTURED_POINTS
DIMENSIONS 256 128 1
ORIGIN 0 0 0
SPACING 0.15625 0.15625 1
POINT_DATA 32768
SCALARS rhoi float
LOOKUP_TABLE default
5.79942e-20
7.67344e-20
6.91413e-20
1.00559e-19
8.16055e-20
9.75231e-20
1.25292e-19
8.19713e-20
1.10213e-19
1.14097e-19
1.20023e-19
1.01271e-19
8.18944e-20
1.17355e-19
1.06313e-19
1.23053e-19
9.71614e-20
1.38816e-19
1.18004e-19
1.0203e-19
1.23317e-19
9.78783e-20
8.24148e-20
7.55365e-20
1.46861e-19
1.17758e-19
1.17273e-19
1.32278e-19
1.18697e-19
9.07756e-20
1.20547e-19
1.32163e-19
1.10903e-19
1.17298e-19
8.68594e-20
1.14865e-19
1.08399e-19
1.20242e-19
1.6237e-19
1.51516e-19
1.09018e-19
8.11888e-20
1.09636e-19
1.07708e-19
1.11764e-19
9.43287e-20
7.59664e-20
1.23084e-19
1.29593e-19
1.34718e-19
1.23697e-19
1.12267e-19
1.27841e-19
1.5643e-19
1.00191e-19
9.27794e-20
8.39351e-20
9.55254e-20
7.35518e-20
1.10282e-19
1.27393e-19
1.25215e-19
1.14374e-19
1.29594e-19
1.01992e-19
9.91225e-20
1.4952e-19
9.55616e-20
9.47616e-20
1.10205e-19
9.83171e-20
7.43119e-20
1.04763e-19
9.58897e-20
5.35155e-20
8.54804e-20
1.01615e-19
1.24789e-19
9.81889e-20
6.50992e-20
1.08124e-19
8.09834e-20
1.30751e-19
1.09174e-19
1.04747e-19
1.32131e-19
1.18397e-19
1.14028e-19
1.03391e-19
1.17738e-19
1.00466e-19
8.60801e-20
9.53533e-20
1.41974e-19
1.39241e-19
2.12893e-19
1.24522e-19
1.37745e-19
7.85577e-20
1.21625e-19
8.35015e-20
9.34981e-20
8.84125e-20
1.6056e-19
8.95113e-20
1.28658e-19
5.67351e-20
1.03181e-19
1.1996e-19
9.93223e-20
1.03676e-19
1.13619e-19
1.52318e-19
1.37096e-19
1.16761e-19
9.04004e-20
1.65047e-19
1.43335e-19
7.94578e-20
1.15129e-19
9.40354e-20
9.9278e-20
1.25323e-19
1.22365e-19
1.37504e-19
1.04768e-19
1.16689e-19
1.03427e-19
1.39347e-19
1.12745e-19
1.00613e-19
1.38424e-19
1.01821e-19
1.0068e-19
1.35773e-19
1.50095e-19
1.2066e-19
1.07712e-19
1.26215e-19
1.48647e-19
9.22222e-20
7.34259e-20
1.01045e-19
8.08759e-20
1.10823e-19
1.14549e-19
1.23615e-19
1.26443e-19
8.52787e-20
1.41383e-19
1.05112e-19
1.50376e-19
1.07256e-19
1.09399e-19
1.27282e-19
1.83317e-19
9.69389e-20
1.053e-19
9.9319e-20
9.65103e-20
1.27637e-19
1.2245e-19
8.19269e-20
1.22523e-19
1.1102e-19
1.63963e-19
8.07465e-20
1.12646e-19
1.15606e-19
1.53471e-19
1.20831e-19
8.9257e-20
1.36596e-19
1.05833e-19
1.28638e-19
1.01313e-19
9.72575e-20
9.52341e-20
5.24178e-20
9.07369e-20
1.01759e-19
1.06954e-19
1.2818e-19
1.2677e-19
1.10898e-19
7.73887e-20
1.2583e-19
1.07402e-19
6.78183e-20
9.98937e-20
1.30837e-19
1.42153e-19
1.06271e-19
2.0011e-19
1.00055e-19
8.26852e-20
8.0416e-20
1.07526e-19
8.18787e-20
1.24252e-19
9.3395e-20
1.05413e-19
1.0069e-19
1.39042e-19
8.02244e-20
1.24183e-19
1.00961e-19
7.87116e-20
1.21596e-19
1.1279e-19
1.17366e-19
8.68247e-20
9.7024e-20
1.06269e-19
1.27193e-19
9.74254e-20
9.99332e-20
1.16405e-19
8.00176e-20
9.54737e-20
4.88216e-20
9.50407e-20
1.2724e-19
1.12555e-19
1.04342e-19
6.51345e-20
1.10771e-19
1.37395e-19
9.18678e-20
6.39336e-20
9.44269e-20
1.09354e-19
1.41412e-19
1.02289e-19
8.38194e-20
1.5163e-19
9.79788e-20
9.09536e-20
1.27837e-19
8.53995e-20
1.00407e-19
1.19748e-19
1.27689e-19
9.51056e-20
1.35368e-19
1.07622e-19
1.10154e-19
1.21597e-19
1.03838e-19
9.53948e-20
1.07689e-19
1.1028e-19
8.69648e-20
1.36777e-19
1.16075e-19
1.15972e-19
2.0285e-19
2.45902e-19
2.13297e-19
2.73213e-19
2.33063e-19
2.79812e-19
2.53267e-19
2.51109e-19
3.29499e-19
2.90612e-19
2.6433e-19
2.38188e-19
2.53401e-19
3.09176e-19
2.09378e-19
2.681e-19
2.36596e-19
2.5073e-19
2.93599e-19
2.14518e-19
2.82381e-19
3.31255e-19
2.41467e-19
3.08591e-19
2.1412e-19
3.13542e-19
2.32455e-19
2.88604e-19
2.98734e-19
3.1315e-19
2.72529e-19
2.489e-19
3.08006e-19
2.66318e-19
2.40897e-19
2.61834e-19
2.66375e-19
2.5109e-19
3.58662e-19
3.1657e-19
2.70294e-19
2.65132e-19
2.67851e-19
3.4403e-19
2.62496e-19
3.28249e-19
2.39956e-19
2.50776e-19
3.11533e-19
3.21681e-19
2.59574e-19
2.84462e-19
2.35948e-19
3.01461e-19
2.98747e-19
2.2123e-19
2.25027e-19
2.07785e-19
2.50037e-19
2.43835e-19
2.19454e-19
3.12423e-19
3.32156e-19
3.34999e-19
3.46294e-19
3.2929e-19
2.45902e-19
3.07695e-19
1.91981e-19
3.21127e-19
2.61172e-19
2.93068e-19
2.97236e-19
2.42217e-19
2.41688e-19
2.70459e-19
2.29363e-19
3.55313e-19
2.37994e-19
2.32519e-19
2.92036e-19
2.81965e-19
1.82243e-19
2.47244e-19
2.4493e-19
3.17408e-19
3.17912e-19
2.58825e-19
2.57748e-19
1.62994e-19
2.19996e-19
2.61136e-19
2.67844e-19
2.45947e-19
2.65151e-19
3.04056e-19
2.52575e-19
2.85313e-19
2.58659e-19
2.91381e-19
2.39745e-19
3.58658e-19
2.00666e-19
2.92547e-19
3.23058e-19
2.33742e-19
2.33194e-19
3.26937e-19
3.18707e-19
2.11564e-19
2.42416e-19
2.94768e-19
2.95237e-19
2.8309e-19
2.88951e-19
2.81344e-19
2.97861e-19
3.08023e-19
3.28795e-19
3.10147e-19
2.4581e-19
2.4995e-19
2.78324e-19
2.9696e-19
2.09094e-19
2.30928e-19
2.57668e-19
2.72705e-19
2.27203e-19
3.2689e-19
2.75156e-19
2.77759e-19
2.12988e-19
2.9978e-19
2.52929e-19
2.82494e-19
2.84833e-19
2.59483e-19
2.43007e-19
2.63402e-19
2.43332e-19
2.51195e-19
2.68127e-19
2.55422e-19
2.69131e-19
2.27603e-19
2.62697e-19
3.55532e-19
2.43174e-19
2.83287e-19
2.55165e-19
2.60798e-19
3.22295e-19
2.61161e-19
2.90678e-19
2.94804e-19
2.45785e-19
2.79719e-19
2.5306e-19
2.99997e-19
2.96073e-19
2.61089e-19
2.2612e-19
2.6471e-19
2.24287e-19
2.69572e-19
2.39605e-19
3.11342e-19
2.48569e-19
2.72134e-19
2.98523e-19
2.7689e-19
2.9323e-19
2.75882e-19
1.92739e-19
2.11071e-19
3.28438e-19
2.98273e-19
2.36307e-19
2.59474e-19
2.72884e-19
3.28096e-19
2.35407e-19
3.20099e-19
2.67959e-19
2.74785e-19
1.66397e-19
2.20876e-19
2.60628e-19
2.68712e-19
2.40707e-19
2.74923e-19
2.53956e-19
2.78842e-19
2.52229e-19
3.79176e-19
2.39888e-19
1.99287e-19
2.34354e-19
2.93991e-19
3.16864e-19
2.90559e-19
3.00658e-19
3.05398e-19
2.85693e-19
2.70802e-19
2.17888e-19
2.73926e-19
2.68986e-19
2.19504e-19
2.51772e-19
3.18945e-19
2.71434e-19
2.47707e-19
3.27787e-19
2.86994e-19
2.45944e-19
2.49778e-19
2.52869e-19
3.16868e-19
3.04707e-19
2.85943e-19
3.29765e-19
3.52995e-19
2.79018e-19
2.44511e-19
2.46094e-19
2.86622e-19
1.94519e-19
2.7156e-19
2.82275e-19
2.5395e-19
2.81108e-19
3.23355e-19
2.86155e-19
2.16404e-19
2.17513e-19
1.80084e-19
2.66633e-19
2.89721e-19
2.08937e-19
3.437e-19
3.78275e-19
2.21884e-19
2.22939e-19
2.74843e-19
2.84924e-19
2.33686e-19
3.51859e-19
2.16099e-19
2.61984e-19
2.60968e-19
2.87098e-19
3.03985e-19
2.40281e-19
2.74651e-19
5.00647e-19
3.91641e-19
3.87988e-19
4.74821e-19
4.83733e-19
4.21778e-19
5.50603e-19
3.86371e-19
4.94608e-19
4.65332e-19
3.83178e-19
5.10659e-19
6.21678e-19
4.82894e-19
5.17291e-19
4.04864e-19
3.32766e-19
5.56526e-19
4.5043e-19
4.39908e-19
5.24669e-19
5.79237e-19
4.01401e-19
5.51304e-19
5.98956e-19
5.10523e-19
4.56734e-19
6.10915e-19
6.50837e-19
4.57404e-19
4.75052e-19
4.29158e-19
5.26707e-19
3.66668e-19
4.63939e-19
5.87267e-19
4.15907e-19
5.45947e-19
5.24542e-19
4.33919e-19
5.05039e-19
4.64609e-19
4.348e-19
5.40211e-19
5.40552e-19
5.90082e-19
3.67055e-19
4.52479e-19
4.92754e-19
5.27057e-19
4.93551e-19
4.43884e-19
4.39727e-19
4.77562e-19
3.66578e-19
4.57228e-19
4.22937e-19
4.89029e-19
5.66088e-19
5.73588e-19
5.28131e-19
4.9366e-19
5.74965e-19
4.11812e-19
5.18169e-19
5.66515e-19
4.78124e-19
4.51108e-19
4.11452e-19
4.44658e-19
5.08037e-19
5.52062e-19
4.55688e-19
3.83314e-19
6.0576e-19
5.95285e-19
4.75648e-19
5.32134e-19
4.50421e-19
3.46616e-19
6.06177e-19
4.3866e-19
5.08393e-19
5.34068e-19
5.21599e-19
5.04523e-19
6.13651e-19
4.7657e-19
4.52565e-19
5.13027e-19
5.09943e-19
4.68392e-19
5.02369e-19
5.06783e-19
5.43334e-19
6.0576e-19
5.33189e-19
6.06188e-19
6.27954e-19
5.38613e-19
4.86978e-19
5.34777e-19
3.60264e-19
5.51382e-19
6.72746e-19
5.07039e-19
5.0142e-19
5.73641e-19
6.26079e-19
5.89861e-19
5.33032e-19
5.57313e-19
6.54144e-19
4.13914e-19
5.51868e-19
5.0312e-19
5.37684e-19
4.61591e-19
5.0081e-19
4.30174e-19
5.4252e-19
5.11447e-19
4.88614e-19
4.77995e-19
3.93466e-19
4.6531e-19
5.14111e-19
5.29429e-19
6.39466e-19
4.57585e-19
5.30232e-19
3.7283e-19
3.9495e-19
5.46829e-19
5.89484e-19
5.07399e-19
5.37561e-19
4.62559e-19
4.25862e-19
5.8611e-19
5.67435e-19
3.16734e-19
4.70872e-19
3.83868e-19
4.6588e-19
4.3475e-19
5.40256e-19
4.9959e-19
4.55335e-19
3.81729e-19
4.98288e-19
4.79776e-19
5.28487e-19
5.10304e-19
4.50965e-19
5.4193e-19
4.78226e-19
4.88771e-19
4.67184e-19
5.79109e-19
5.29357e-19
5.08438e-19
4.19655e-19
5.18858e-19
3.29824e-19
4.49059e-19
4.22553e-19
5.19156e-19
3.77542e-19
6.38167e-19
4.90848e-19
4.756e-19
5.00462e-19
4.32444e-19
4.0826e-19
4.96435e-19
5.06169e-19
4.74937e-19
4.00082e-19
5.92787e-19
4.89279e-19
4.88796e-19
5.05495e-19
6.24129e-19
5.56148e-19
3.94931e-19
3.21736e-19
4.92236e-19
3.83974e-19
4.73404e-19
4.95609e-19
5.24267e-19
5.36462e-19
5.50323e-19
3.95451e-19
5.69052e-19
4.90109e-19
5.17024e-19
3.63457e-19
4.9057e-19
4.33878e-19
5.18663e-19
4.10743e-19
4.68685e-19
5.32938e-19
4.98623e-19
3.71597e-19
4.54982e-19
5.27685e-19
4.48131e-19
4.86971e-19
3.56186e-19
5.45605e-19
5.3122e-19
4.44786e-19
4.72654e-19
4.23266e-19
4.66851e-19
5.85247e-19
5.14699e-19
3.51064e-19
5.4794e-19
5.14319e-19
5.26998e-19
3.86726e-19
4.21189e-19
4.67384e-19
4.86383e-19
4.71804e-19
5.43351e-19
4.02029e-19
4.35217e-19
3.80742e-19
4.99685e-19
4.35217e-19
4.39083e-19
4.33321e-19
5.31055e-19
5.94913e-19
4.79521e-19
4.89543e-19
6.93136e-19
4.9627e-19
4.52546e-19
4.15196e-19
5.14927e-19
5.43004e-19
3.70487e-19
5.51715e-19
3.93368e-19
5.64701e-19
4.98361e-19
5.15453e-19
5.45543e-19
4.58696e-19
4.84654e-19
9.44736e-19
7.64577e-19
9.49821e-19
8.77971e-19
8.93019e-19
8.68914e-19
7.44872e-19
7.20346e-19
9.19142e-19
8.87799e-19
9.57996e-19
1.02535e-18
9.10744e-19
9.34447e-19
8.08437e-19
7.91057e-19
1.23877e-18
9.32884e-19
8.48948e-19
8.16326e-19
1.03421e-18
7.62599e-19
9.92924e-19
1.09694e-18
1.0298e-18
8.97382e-19
6.88759e-19
7.51411e-19
1.0395e-18
7.34106e-19
8.15096e-19
8.28825e-19
8.66562e-19
8.23938e-19
8.09955e-19
8.2366e-19
8.78016e-19
9.13234e-19
8.2063e-19
1.03247e-18
1.07183e-18
8.51934e-19
7.01135e-19
8.34413e-19
9.63413e-19
1.12901e-18
7.72082e-19
7.23161e-19
9.04951e-19
9.04426e-19
1.16096e-18
7.8702e-19
1.08607e-18
9.97343e-19
1.01238e-18
9.81037e-19
1.05543e-18
9.79136e-19
9.0258e-19
7.24947e-19
8.49947e-19
9.84567e-19
8.62739e-19
8.58848e-19
8.09717e-19
1.06033e-18
8.26841e-19
8.79613e-19
7.82029e-19
8.98695e-19
1.13453e-18
1.18222e-18
7.41855e-19
8.55337e-19
9.7565e-19
8.12275e-19
9.63337e-19
8.61442e-19
6.25051e-19
7.85568e-19
9.454e-19
5.12794e-19
9.46888e-19
8.89451e-19
7.34819e-19
8.51127e-19
1.10552e-18
1.01244e-18
9.5581e-19
8.48962e-19
1.04566e-18
9.08229e-19
1.03639e-18
1.02601e-18
8.17084e-19
7.2778e-19
1.12905e-18
1.04625e-18
7.63877e-19
6.74681e-19
9.79699e-19
6.44314e-19
9.52025e-19
8.3938e-19
7.95302e-19
8.20454e-19
8.87354e-19
7.81533e-19
1.00952e-18
8.44106e-19
9.85938e-19
9.77641e-19
8.30497e-19
9.13668e-19
8.15903e-19
8.40502e-19
9.52911e-19
7.38973e-19
8.39507e-19
8.05311e-19
9.09799e-19
8.33795e-19
9.95969e-19
9.44957e-19
9.93324e-19
9.18383e-19
7.22727e-19
1.01183e-18
7.81992e-19
1.01881e-18
1.02427e-18
1.1016e-18
9.68554e-19
1.13681e-18
9.5323e-19
1.15936e-18
8.96379e-19
8.72266e-19
9.93699e-19
9.00248e-19
1.02473e-18
7.01294e-19
8.01322e-19
1.07433e-18
9.14933e-19
7.54731e-19
9.72095e-19
8.13711e-19
6.92237e-19
6.71706e-19
9.60434e-19
7.28684e-19
8.47804e-19
8.26134e-19
8.93356e-19
1.12136e-18
8.34323e-19
6.79871e-19
8.75901e-19
7.60761e-19
1.15776e-18
8.90011e-19
8.52744e-19
7.50585e-19
7.60485e-19
8.57933e-19
1.05778e-18
8.11606e-19
9.98933e-19
9.65262e-19
9.27089e-19
8.16064e-19
6.54366e-19
9.6894e-19
7.31788e-19
8.5491e-19
1.13286e-18
6.19597e-19
8.36155e-19
7.02462e-19
6.90832e-19
7.74773e-19
6.5673e-19
8.1689e-19
9.77124e-19
1.24013e-18
7.65719e-19
8.16028e-19
7.709e-19
8.79988e-19
8.63584e-19
8.49742e-19
9.00947e-19
9.76142e-19
8.7583e-19
7.39429e-19
1.02037e-18
6.97109e-19
1.04193e-18
1.00203e-18
9.72251e-19
1.22186e-18
1.05732e-18
7.86273e-19
8.29578e-19
7.7727e-19
1.01251e-18
1.00806e-18
7.6495e-19
8.92096e-19
6.09942e-19
7.8106e-19
9.0173e-19
8.11726e-19
9.21441e-19
8.62844e-19
7.79757e-19
7.02123e-19
6.69994e-19
9.00843e-19
9.38834e-19
8.48052e-19
9.7132e-19
9.29358e-19
9.66962e-19
7.04706e-19
7.68108e-19
8.41346e-19
8.62371e-19
8.19626e-19
6.50546e-19
7.75614e-19
7.80334e-19
9.48958e-19
8.96902e-19
8.62644e-19
8.81406e-19
1.02717e-18
8.79598e-19
7.99035e-19
5.95915e-19
1.04913e-18
7.74513e-19
6.05587e-19
9.0695e-19
9.11134e-19
9.10959e-19
8.93439e-19
9.97067e-19
7.01363e-19
9.94265e-19
1.04037e-18
9.65808e-19
7.38069e-19
1.14692e-18
1.04569e-18
1.37884e-18
1.54261e-18
1.13271e-18
1.01601e-18
1.66471e-18
1.51535e-18
2.03005e-18
1.55667e-18
1.22039e-18
1.49416e-18
2.15623e-18
1.51561e-18
1.6918e-18
1.62349e-18
1.58555e-18
1.82469e-18
1.8324e-18
1.39087e-18
1.48968e-18
1.26395e-18
1.31117e-18
1.89544e-18
2.28393e-18
2.01241e-18
1.79153e-18
1.22338e-18
2.00402e-18
1.32313e-18
1.37814e-18
1.38826e-18
1.81631e-18
1.62285e-18
1.49561e-18
1.50933e-18
1.69734e-18
1.96792e-18
1.87899e-18
1.60587e-18
1.35722e-18
1.42082e-18
1.90439e-18
1.4712e-18
1.45986e-18
1.98614e-18
1.18371e-18
1.74542e-18
1.26474e-18
9.47382e-19
1.73387e-18
1.50139e-18
1.42752e-18
1.71947e-18
1.61614e-18
1.69312e-18
1.49776e-18
1.35094e-18
1.545e-18
1.72627e-18
1.56314e-18
1.76883e-18
1.60182e-18
1.54882e-18
1.68515e-18
1.69818e-18
1.53951e-18
2.04667e-18
1.50613e-18
1.94632e-18
1.57104e-18
1.58004e-18
1.67367e-18
1.6348e-18
1.88135e-18
1.4218e-18
1.59877e-18
1.80308e-18
1.46635e-18
1.53659e-18
8.82246e-19
9.98034e-19
2.14153e-18
1.35731e-18
1.78226e-18
1.77888e-18
2.05231e-18
1.28332e-18
1.82032e-18
1.612e-18
1.96162e-18
1.70295e-18
1.71346e-18
1.63668e-18
1.2286e-18
1.38196e-18
2.09051e-18
1.52084e-18
1.64161e-18
1.65452e-18
1.51872e-18
1.39124e-18
1.33019e-18
2.09231e-18
1.55687e-18
1.84921e-18
1.03044e-18
1.52888e-18
1.67922e-18
1.86963e-18
1.93283e-18
1.89786e-18
1.32455e-18
1.65028e-18
1.47308e-18
1.69632e-18
1.34868e-18
1.29337e-18
1.83447e-18
1.83217e-18
1.62003e-18
1.58166e-18
1.59127e-18
1.6204e-18
1.50734e-18
1.64058e-18
1.54681e-18
1.17828e-18
1.55163e-18
1.4078e-18
2.0574e-18
1.76338e-18
1.78601e-18
1.69394e-18
1.47258e-18
1.5839e-18
2.19662e-18
1.80517e-18
1.71108e-18
1.83167e-18
1.82236e-18
1.59085e-18
1.69253e-18
1.41748e-18
1.40562e-18
1.69786e-18
1.8371e-18
2.07056e-18
1.7567e-18
1.84115e-18
1.68581e-18
1.63335e-18
1.28509e-18
1.26957e-18
1.43004e-18
2.02302e-18
1.30363e-18
1.8989e-18
1.80782e-18
1.66209e-18
2.03471e-18
1.77125e-18
1.52238e-18
1.30126e-18
1.63221e-18
1.8177e-18
1.83075e-18
1.0824e-18
1.66418e-18
1.76405e-18
1.29524e-18
1.81523e-18
1.99657e-18
1.20791e-18
1.67351e-18
1.34226e-18
1.45771e-18
1.50185e-18
1.74859e-18
1.7795e-18
1.60221e-18
1.87707e-18
1.67778e-18
1.84377e-18
2.06193e-18
1.64576e-18
1.44256e-18
1.50625e-18
1.51275e-18
1.70115e-18
1.74323e-18
1.58021e-18
1.78235e-18
1.81337e-18
1.34942e-18
1.80003e-18
1.72791e-18
1.62692e-18
1.53863e-18
1.60891e-18
1.7631e-18
1.62436e-18
1.4575e-18
1.43193e-18
1.39839e-18
1.59398e-18
1.61133e-18
1.5409e-18
1.78155e-18
1.66967e-18
1.60855e-18
1.89759e-18
1.37134e-18
1.4032e-18
1.63413e-18
2.05799e-18
1.07314e-18
1.38433e-18
1.60104e-18
1.39523e-18
1.56792e-18
1.80951e-18
1.32332e-18
1.39138e-18
2.08598e-18
1.75446e-18
1.6501e-18
1.39654e-18
1.60164e-18
1.63006e-18
1.21986e-18
1.88737e-18
1.70165e-18
1.51355e-18
1.41131e-18
1.36312e-18
1.64116e-18
1.80057e-18
1.71159e-18
1.50917e-18
1.34438e-18
1.54169e-18
1.07384e-18
2.08328e-18
1.31751e-18
1.26941e-18
1.82099e-18
1.95513e-18
1.57464e-18
1.75513e-18
1.41434e-18
1.73104e-18
1.80341e-18
1.50763e-18
1.63285e-18
1.51646e-18
1.32614e-18
1.47483e-18
2.7027e-18
3.08e-18
2.93698e-18
3.01876e-18
3.3141e-18
2.62805e-18
2.72033e-18
2.46706e-18
3.20944e-18
2.62076e-18
3.65351e-18
2.38832e-18
3.29382e-18
3.32093e-18
3.29906e-18
2.92723e-18
3.13114e-18
3.54845e-18
3.5012e-18
2.38379e-18
3.23121e-18
2.77459e-18
2.79959e-18
3.73842e-18
3.50327e-18
2.73687e-18
2.96368e-18
3.07805e-18
2.51545e-18
2.59271e-18
3.13387e-18
3.24817e-18
3.31881e-18
2.81154e-18
2.98166e-18
3.06747e-18
3.60235e-18
2.25367e-18
3.38737e-18
2.84192e-18
2.80282e-18
3.1377e-18
3.20824e-18
2.11133e-18
2.96323e-18
3.06688e-18
2.82641e-18
3.07476e-18
2.63069e-18
3.19075e-18
2.43846e-18
2.91781e-18
4.15265e-18
2.39947e-18
2.89313e-18
2.53063e-18
2.70711e-18
3.33013e-18
3.21571e-18
2.67577e-18
2.45536e-18
2.55124e-18
2.78246e-18
3.16693e-18
3.60379e-18
2.8739e-18
2.57226e-18
3.80455e-18
2.89569e-18
3.30619e-18
2.5602e-18
3.37715e-18
2.26316e-18
3.66539e-18
2.34969e-18
2.78949e-18
2.94146e-18
3.25928e-18
2.30952e-18
2.60217e-18
2.35218e-18
2.56668e-18
2.78122e-18
2.69257e-18
3.16589e-18
3.02375e-18
4.10494e-18
3.31644e-18
2.79994e-18
3.76596e-18
2.49328e-18
2.4317e-18
2.76413e-18
2.34458e-18
2.82472e-18
3.52724e-18
3.21934e-18
3.14292e-18
3.38248e-18
2.54893e-18
3.36552e-18
2.74274e-18
2.61579e-18
3.24292e-18
3.13202e-18
2.90963e-18
3.59977e-18
3.09278e-18
2.95474e-18
2.8736e-18
2.88815e-18
2.33346e-18
2.6878e-18
3.42658e-18
3.78071e-18
3.53085e-18
2.27702e-18
3.24039e-18
3.10247e-18
2.62395e-18
2.26024e-18
3.38839e-18
3.39044e-18
3.45743e-18
2.92222e-18
3.15524e-18
3.39626e-18
2.35045e-18
2.82909e-18
3.43767e-18
3.37385e-18
2.56755e-18
2.56445e-18
3.00979e-18
3.85242e-18
2.34033e-18
3.19479e-18
3.18585e-18
3.37009e-18
2.2142e-18
2.96105e-18
2.64736e-18
3.08818e-18
3.07356e-18
3.14596e-18
3.22616e-18
3.00674e-18
2.68177e-18
3.38111e-18
2.78469e-18
3.4764e-18
2.88323e-18
2.67883e-18
2.1161e-18
2.408e-18
2.87147e-18
3.50378e-18
3.05453e-18
3.10892e-18
3.56728e-18
3.16607e-18
2.59701e-18
2.92504e-18
2.93237e-18
3.53117e-18
2.99053e-18
3.49403e-18
3.24702e-18
2.77293e-18
3.60544e-18
3.18719e-18
3.40344e-18
2.53654e-18
2.58295e-18
3.04458e-18
2.81904e-18
3.54366e-18
2.61877e-18
2.99395e-18
3.29933e-18
3.98079e-18
3.07855e-18
2.93138e-18
3.10504e-18
2.76202e-18
2.67638e-18
2.86977e-18
3.3391e-18
2.66307e-18
3.83336e-18
3.43952e-18
2.26023e-18
2.72631e-18
3.16015e-18
2.3445e-18
2.60459e-18
3.18295e-18
2.81786e-18
2.72515e-18
3.29052e-18
2.89516e-18
2.8478e-18
2.5624e-18
2.77433e-18
3.80175e-18
2.90935e-18
2.55789e-18
2.41643e-18
2.15364e-18
3.03268e-18
3.45596e-18
3.42438e-18
2.85346e-18
3.03984e-18
2.61844e-18
3.63642e-18
2.75192e-18
2.85682e-18
2.60362e-18
3.12076e-18
2.85859e-18
2.63654e-18
3.31658e-18
3.11232e-18
3.54928e-18
3.01664e-18
3.25937e-18
3.48187e-18
2.84423e-18
3.34215e-18
2.89258e-18
2.81941e-18
2.56688e-18
3.45102e-18
3.17053e-18
3.18353e-18
3.61729e-18
3.25864e-18
2.86517e-18
3.0605e-18
2.32533e-18
3.04716e-18
3.37856e-18
4.0619e-18
2.92878e-18
3.3211e-18
3.38399e-18
3.8475e-18
2.87189e-18
3.42611e-18
2.51724e-18
2.52871e-18
2.83575e-18
2.3633e-18
2.4664e-18
3.03119e-18
5.54557e-18
4.65893e-18
5.84943e-18
4.93585e-18
6.95872e-18
5.93077e-18
6.61365e-18
5.6641e-18
6.29862e-18
5.43743e-18
4.8166e-18
4.46489e-18
5.45406e-18
4.6578e-18
6.69744e-18
6.34237e-18
5.35944e-18
5.4619e-18
5.51255e-18
5.57585e-18
5.5753e-18
5.25379e-18
4.05766e-18
6.60035e-18
4.40229e-18
6.042e-18
6.10792e-18
4.66874e-18
4.19647e-18
6.09472e-18
7.10196e-18
4.14671e-18
4.58067e-18
4.09568e-18
4.22724e-18
5.77728e-18
5.79216e-18
5.18862e-18
3.90866e-18
6.11601e-18
5.24193e-18
4.63959e-18
5.37236e-18
5.17952e-18
5.46279e-18
6.25707e-18
4.36519e-18
6.04528e-18
5.18348e-18
3.48383e-18
5.70461e-18
6.53842e-18
5.80205e-18
4.5752e-18
4.78262e-18
4.23805e-18
5.65684e-18
5.68689e-18
5.45761e-18
5.21545e-18
6.54842e-18
4.7032e-18
6.35514e-18
4.33967e-18
7.42542e-18
6.0396e-18
4.84434e-18
5.72115e-18
6.11514e-18
6.86725e-18
6.45773e-18
6.62234e-18
5.58472e-18
4.44531e-18
5.73141e-18
4.32316e-18
5.58445e-18
7.03877e-18
4.66169e-18
4.31168e-18
5.73808e-18
6.51386e-18
4.06038e-18
7.14069e-18
4.85018e-18
4.96141e-18
5.26726e-18
4.95811e-18
5.68339e-18
4.67958e-18
4.62068e-18
5.00313e-18
4.97927e-18
4.14725e-18
5.52773e-18
6.69765e-18
4.75823e-18
5.76396e-18
4.05429e-18
4.21674e-18
5.75318e-18
4.71062e-18
5.54716e-18
6.21179e-18
4.20635e-18
4.65392e-18
4.17159e-18
5.11083e-18
4.94631e-18
6.784e-18
4.7932e-18
6.0108e-18
6.59547e-18
4.43063e-18
7.28704e-18
6.88608e-18
5.10782e-18
5.95126e-18
4.42517e-18
7.14329e-18
4.9996e-18
6.86341e-18
5.23722e-18
4.90499e-18
4.39207e-18
4.92938e-18
5.68821e-18
5.7216e-18
5.78509e-18
5.78187e-18
5.14676e-18
6.20058e-18
5.45148e-18
6.26687e-18
5.86741e-18
5.14953e-18
4.82983e-18
4.85942e-18
5.47362e-18
6.65514e-18
5.77348e-18
6.37962e-18
7.08335e-18
6.18889e-18
5.24081e-18
5.43723e-18
4.86427e-18
5.27593e-18
6.14637e-18
5.24514e-18
5.36043e-18
7.18793e-18
5.62938e-18
6.88854e-18
4.23616e-18
6.23465e-18
4.05427e-18
4.43083e-18
5.75051e-18
4.16902e-18
6.229e-18
5.73297e-18
5.29226e-18
5.73911e-18
5.02033e-18
5.854e-18
4.66551e-18
4.29912e-18
5.05982e-18
5.1601e-18
5.93912e-18
6.32114e-18
5.32578e-18
4.6318e-18
6.42565e-18
6.01262e-18
5.91198e-18
5.02153e-18
5.47799e-18
4.95466e-18
5.02101e-18
6.2931e-18
5.01785e-18
4.35515e-18
6.07301e-18
4.01938e-18
5.58509e-18
5.5843e-18
5.3052e-18
6.32117e-18
6.23817e-18
6.52578e-18
5.78175e-18
6.47336e-18
5.78833e-18
5.73335e-18
5.90237e-18
5.26678e-18
7.04482e-18
4.88244e-18
6.26993e-18
4.52425e-18
5.48705e-18
7.01126e-18
5.60708e-18
6.19888e-18
5.17219e-18
5.02603e-18
5.87132e-18
5.66367e-18
5.3434e-18
5.90584e-18
4.9975e-18
5.80875e-18
5.45597e-18
5.66931e-18
4.94196e-18
4.88449e-18
4.89872e-18
6.64363e-18
5.95916e-18
5.97807e-18
5.28467e-18
5.29056e-18
6.49225e-18
4.21532e-18
4.92486e-18
5.19061e-18
7.02463e-18
5.32846e-18
6.41154e-18
4.92895e-18
4.67493e-18
6.36775e-18
5.16752e-18
3.94685e-18
6.93799e-18
4.67011e-18
6.14054e-18
5.11706e-18
5.83537e-18
5.28368e-18
5.14723e-18
4.89901e-18
5.41837e-18
5.3603e-18
6.88074e-18
5.94391e-18
5.84017e-18
5.39571e-18
6.16658e-18
4.85254e-18
3.95838e-18
5.95751e-18
4.89227e-18
4.4897e-18
8.63195e-18
8.42151e-18
1.03598e-17
8.72076e-18
1.10781e-17
9.11439e-18
1.06057e-17
1.16269e-17
8.43683e-18
9.31433e-18
8.55022e-18
1.12274e-17
1.05038e-17
1.33883e-17
1.28979e-17
1.29456e-17
1.25616e-17
1.21285e-17
1.18528e-17
1.08882e-17
1.03963e-17
9.91818e-18
1.20018e-17
1.12602e-17
9.33127e-18
9.89434e-18
1.02038e-17
1.1358e-17
1.07324e-17
1.09118e-17
9.43486e-18
1.13075e-17
9.97864e-18
8.62483e-18
1.29433e-17
1.10315e-17
1.03841e-17
7.54728e-18
1.16541e-17
9.80002e-18
8.89195e-18
1.15988e-17
1.35269e-17
1.31424e-17
1.2169e-17
1.04274e-17
9.54669e-18
1.05367e-17
1.19791e-17
1.05104e-17
1.13741e-17
1.1428e-17
1.40306e-17
1.26904e-17
1.04866e-17
1.19068e-17
1.08643e-17
1.09032e-17
1.2023e-17
1.14744e-17
1.35274e-17
1.05215e-17
1.02796e-17
1.14417e-17
1.03603e-17
1.129e-17
9.41985e-18
1.28973e-17
1.33054e-17
1.05992e-17
1.2733e-17
1.07992e-17
1.01856e-17
1.07435e-17
1.11026e-17
1.2084e-17
1.16343e-17
1.08664e-17
9.22713e-18
1.05314e-17
1.18869e-17
9.23832e-18
1.11544e-17
1.20331e-17
1.05909e-17
1.14876e-17
1.02662e-17
9.02002e-18
1.15932e-17
1.00544e-17
9.1578e-18
1.3026e-17
1.17659e-17
8.98958e-18
1.10072e-17
1.20557e-17
7.11997e-18
1.06136e-17
1.10394e-17
9.96283e-18
9.341e-18
8.82219e-18
1.14368e-17
1.15479e-17
9.15652e-18
1.02115e-17
9.25132e-18
1.03724e-17
1.24801e-17
8.76834e-18
1.12102e-17
1.1538e-17
1.03553e-17
9.48506e-18
1.17587e-17
1.24589e-17
1.06105e-17
1.32015e-17
8.40368e-18
1.07609e-17
1.2448e-17
1.33379e-17
9.82859e-18
9.0688e-18
1.08737e-17
1.14236e-17
1.15908e-17
1.19791e-17
9.33065e-18
1.13055e-17
8.63304e-18
1.23248e-17
1.18754e-17
1.00532e-17
1.05872e-17
1.26398e-17
1.22717e-17
1.19554e-17
1.33368e-17
1.19055e-17
8.61103e-18
1.17213e-17
9.45245e-18
1.11546e-17
1.1159e-17
8.17551e-18
1.43044e-17
1.12934e-17
1.04994e-17
1.09696e-17
9.74511e-18
1.06278e-17
1.40825e-17
1.09572e-17
1.04721e-17
1.15925e-17
1.11515e-17
9.09326e-18
1.28494e-17
7.8364e-18
1.22487e-17
1.15581e-17
1.50555e-17
1.13899e-17
1.06328e-17
1.10168e-17
1.1595e-17
9.94092e-18
8.84917e-18
1.04203e-17
7.85569e-18
7.43444e-18
1.29505e-17
1.12214e-17
1.00508e-17
9.67688e-18
8.03394e-18
1.34284e-17
1.01965e-17
1.03258e-17
1.0025e-17
8.5351e-18
9.29054e-18
1.05494e-17
1.08614e-17
9.41534e-18
1.11783e-17
7.58227e-18
1.32135e-17
1.0542e-17
1.27918e-17
1.10521e-17
9.56436e-18
1.0077e-17
1.10444e-17
1.32032e-17
1.04243e-17
9.70702e-18
1.24818e-17
1.22548e-17
1.2993e-17
1.08604e-17
1.26137e-17
1.03352e-17
8.34712e-18
1.02145e-17
1.29172e-17
1.15836e-17
8.80055e-18
1.45801e-17
1.11093e-17
1.24666e-17
1.10885e-17
1.01943e-17
7.3379e-18
9.90501e-18
1.15373e-17
1.15962e-17
7.50157e-18
1.01072e-17
1.21217e-17
7.95782e-18
9.73683e-18
1.1887e-17
8.83578e-18
1.27665e-17
1.10504e-17
1.38989e-17
1.15187e-17
1.08278e-17
8.08773e-18
8.33353e-18
1.08502e-17
7.53685e-18
1.08924e-17
9.41575e-18
1.1917e-17
1.25424e-17
1.08776e-17
8.53784e-18
1.10472e-17
9.39993e-18
9.2211e-18
1.06965e-17
1.01955e-17
1.39242e-17
1.07197e-17
9.58767e-18
9.47749e-18
8.4219e-18
9.52815e-18
1.21135e-17
1.30506e-17
9.98113e-18
9.32941e-18
8.56742e-18
1.91191e-17
2.18393e-17
1.73929e-17
1.87419e-17
1.98036e-17
1.94528e-17
2.17294e-17
1.74499e-17
1.83332e-17
2.31248e-17
1.8822e-17
2.31958e-17
1.61951e-17
1.58368e-17
1.63243e-17
1.79305e-17
1.63665e-17
1.81752e-17
1.72874e-17
1.82785e-17
1.5159e-17
1.88255e-17
2.1684e-17
1.52326e-17
1.65782e-17
1.89947e-17
2.0497e-17
1.78647e-17
1.57881e-17
2.30051e-17
1.83402e-17
1.82793e-17
2.09031e-17
2.14367e-17
2.07889e-17
1.56851e-17
1.57854e-17
1.96254e-17
1.83315e-17
2.03672e-17
1.55651e-17
1.89028e-17
2.40079e-17
2.09581e-17
1.92653e-17
2.48856e-17
2.28306e-17
2.2346e-17
1.5985e-17
2.17739e-17
1.79063e-17
1.95931e-17
1.83494e-17
2.12216e-17
1.87967e-17
1.73245e-17
2.07248e-17
1.68442e-17
1.91334e-17
2.18486e-17
2.49256e-17
1.63712e-17
1.40091e-17
1.72767e-17
1.78258e-17
1.70774e-17
1.47617e-17
1.78917e-17
1.61821e-17
1.54667e-17
1.85294e-17
2.04092e-17
2.10664e-17
2.48101e-17
2.17489e-17
2.20341e-17
2.13903e-17
1.86662e-17
1.87637e-17
1.89575e-17
1.94958e-17
2.18318e-17
2.13823e-17
1.85986e-17
1.52556e-17
1.64719e-17
2.15869e-17
1.72654e-17
1.83775e-17
1.77728e-17
1.98437e-17
1.78947e-17
1.77799e-17
2.38806e-17
2.44066e-17
2.00985e-17
2.00278e-17
1.72252e-17
2.20359e-17
1.86995e-17
2.07985e-17
2.02432e-17
1.88862e-17
1.70851e-17
1.52944e-17
2.21384e-17
2.19773e-17
1.65663e-17
1.8102e-17
2.10006e-17
1.89067e-17
2.02605e-17
1.87382e-17
1.72915e-17
2.09931e-17
2.01803e-17
2.02361e-17
1.94245e-17
2.12972e-17
1.26465e-17
2.34591e-17
2.30305e-17
2.28966e-17
1.83125e-17
2.0997e-17
2.19964e-17
2.18114e-17
1.56477e-17
2.37573e-17
2.19201e-17
1.994e-17
1.90082e-17
1.5935e-17
2.27672e-17
2.08888e-17
2.19765e-17
1.67606e-17
1.9494e-17
2.07983e-17
1.94979e-17
1.80298e-17
2.21093e-17
1.89278e-17
1.86158e-17
2.1037e-17
2.06459e-17
2.35425e-17
1.45708e-17
1.6564e-17
2.00983e-17
1.85402e-17
2.00609e-17
2.15159e-17
2.1463e-17
1.93937e-17
2.16984e-17
1.71896e-17
1.88731e-17
2.10777e-17
2.25793e-17
2.18113e-17
2.30131e-17
1.98227e-17
1.65669e-17
1.89996e-17
2.13784e-17
2.34397e-17
2.45233e-17
2.00757e-17
2.24535e-17
1.90298e-17
1.75798e-17
1.75383e-17
1.56379e-17
1.40365e-17
1.41192e-17
2.41946e-17
2.18788e-17
1.90184e-17
2.11543e-17
1.80849e-17
2.19397e-17
2.24038e-17
1.79921e-17
1.88779e-17
1.51482e-17
2.16362e-17
1.9337e-17
1.78191e-17
1.81759e-17
2.36069e-17
2.07417e-17
2.58167e-17
2.292e-17
2.00762e-17
1.74629e-17
1.86783e-17
1.80738e-17
1.87067e-17
2.10232e-17
1.63254e-17
2.12323e-17
1.97562e-17
1.90691e-17
1.80818e-17
2.17172e-17
2.44456e-17
1.97842e-17
1.96965e-17
2.29606e-17
2.43962e-17
1.69317e-17
1.65017e-17
1.53694e-17
1.84326e-17
2.04189e-17
1.84276e-17
1.74031e-17
1.8282e-17
2.09393e-17
2.46938e-17
2.12977e-17
2.34661e-17
2.36945e-17
1.88634e-17
2.1235e-17
2.18234e-17
2.04277e-17
1.7859e-17
2.18123e-17
2.24003e-17
2.18453e-17
1.86637e-17
1.72027e-17
1.66248e-17
1.72422e-17
1.78435e-17
1.81437e-17
1.65879e-17
1.87684e-17
1.85919e-17
1.84706e-17
2.1291e-17
2.52201e-17
1.51488e-17
2.12042e-17
1.88683e-17
2.2198e-17
1.89891e-17
1.96307e-17
2.20915e-17
1.77228e-17
2.04384e-17
1.87711e-17
1.35324e-17
1.8451e-17
3.30936e-17
3.522e-17
3.77068e-17
3.78889e-17
4.07978e-17
4.25119e-17
2.99384e-17
3.27894e-17
3.75423e-17
3.63922e-17
3.85504e-17
3.87199e-17
4.1942e-17
3.24003e-17
3.91955e-17
4.05914e-17
3.94779e-17
3.80497e-17
3.70006e-17
2.90665e-17
4.51538e-17
4.24601e-17
3.78434e-17
3.16038e-17
3.34334e-17
3.26401e-17
4.55397e-17
3.63868e-17
4.49956e-17
4.18035e-17
3.93463e-17
2.87943e-17
4.35767e-17
3.76409e-17
3.78604e-17
3.56332e-17
3.59071e-17
4.02437e-17
3.94941e-17
3.41879e-17
3.68202e-17
3.69058e-17
4.7117e-17
4.95811e-17
3.82171e-17
3.72588e-17
3.95634e-17
3.93006e-17
3.51658e-17
3.03934e-17
2.30149e-17
3.86922e-17
3.99387e-17
4.47342e-17
3.72868e-17
3.76431e-17
3.02101e-17
3.63132e-17
3.89982e-17
4.06926e-17
4.3028e-17
4.01364e-17
3.88988e-17
4.29122e-17
3.28386e-17
3.67455e-17
3.42329e-17
3.60336e-17
3.68132e-17
3.81921e-17
3.83125e-17
4.19083e-17
3.26637e-17
4.32687e-17
4.98065e-17
4.4192e-17
3.5774e-17
3.71966e-17
3.16103e-17
4.404e-17
5.03164e-17
3.60373e-17
4.0303e-17
3.37551e-17
3.62122e-17
3.80762e-17
2.98602e-17
3.93465e-17
2.85316e-17
3.19621e-17
3.2808e-17
4.1412e-17
2.84481e-17
3.17631e-17
4.33345e-17
2.988e-17
3.85562e-17
2.92121e-17
4.45866e-17
3.64739e-17
3.34492e-17
3.53712e-17
3.64718e-17
3.63247e-17
3.78018e-17
3.10515e-17
2.74537e-17
3.90164e-17
2.82343e-17
3.94048e-17
4.11256e-17
3.80795e-17
4.35868e-17
2.99858e-17
2.9748e-17
2.87686e-17
4.12374e-17
3.42784e-17
3.68188e-17
4.01663e-17
3.41977e-17
3.63667e-17
3.88214e-17
3.9474e-17
3.75371e-17
3.83832e-17
3.45639e-17
3.61174e-17
4.48694e-17
4.46678e-17
3.79326e-17
4.18823e-17
4.91077e-17
4.28196e-17
3.59466e-17
3.60159e-17
3.37487e-17
3.72439e-17
3.40636e-17
4.35047e-17
4.41015e-17
4.32663e-17
4.64942e-17
3.14476e-17
3.49342e-17
3.61614e-17
3.95601e-17
2.61306e-17
3.5914e-17
3.0594e-17
2.89196e-17
3.90193e-17
3.19604e-17
3.29174e-17
4.02444e-17
3.59873e-17
3.74393e-17
3.61918e-17
3.52206e-17
3.61858e-17
3.80778e-17
2.78306e-17
2.90697e-17
3.86301e-17
4.39428e-17
3.78674e-17
3.90266e-17
3.80607e-17
3.70314e-17
3.12592e-17
3.11865e-17
4.31178e-17
3.52568e-17
3.59261e-17
3.01927e-17
3.96868e-17
3.22411e-17
4.1203e-17
3.53611e-17
3.89088e-17
3.33641e-17
3.56093e-17
3.44734e-17
4.24259e-17
3.45762e-17
3.71554e-17
4.89059e-17
3.56835e-17
4.30511e-17
2.94214e-17
2.52803e-17
3.27271e-17
4.4132e-17
3.701e-17
3.01719e-17
3.49184e-17
4.71673e-17
2.88191e-17
3.69891e-17
3.46311e-17
3.46579e-17