# vtk DataFile Version 1.0
Ion Density - Current Sheet
ASCII
DATASET STRUCTURED_POINTS
DIMENSIONS 256 128 1
ORIGIN 0 0 0
SPACING 0.15625 0.15625 1
POINT_DATA 32768
SCALARS rhoi float
LOOKUP_TABLE default
-0.00139638
1.08495e-05
1.26453e-05
8.5637e-06
8.0015e-06
1.63176e-05
5.77248e-06
7.18728e-06
1.57347e-05
9.67826e-06
1.74099e-06
1.85506e-05
-3.45285e-06
3.54531e-06
1.8174e-05
1.57543e-05
1.6383e-05
1.04833e-05
1.18838e-05
2.78882e-06
6.80008e-06
6.62397e-06
2.32774e-05
-4.06577e-06
4.54578e-05
1.86034e-05
-4.13167e-05
2.70537e-05
2.57175e-06
1.75109e-05
3.15492e-05
-1.75876e-05
1.7442e-07
3.9983e-05
-4.20804e-06
-2.96133e-05
3.79188e-05
3.07368e-05
-3.05289e-05
4.26063e-06
3.41606e-05
5.29694e-05
-4.20943e-05
3.38732e-05
2.2995e-05
2.23678e-06
-3.51949e-05
5.95866e-05
3.80603e-05
-1.2393e-05
-1.41789e-05
8.17395e-05
-5.24864e-05
6.05387e-05
-6.93588e-05
7.77484e-05
2.80326e-05
-6.49775e-05
3.3093e-05
1.09021e-05
1.80731e-06
6.19403e-06
2.5999e-05
4.80715e-05
1.51911e-05
-6.39041e-05
1.60649e-06
3.0897e-06
1.10688e-05
-5.00246e-05
6.60601e-05
-7.70529e-05
0.000101406
9.54684e-06
-2.48479e-05
-9.978e-06
5.64344e-05
-3.22072e-05
2.14839e-05
4.62757e-05
-0.000109464
0.000144147
1.60236e-05
8.91697e-06
1.71939e-05
-5.74003e-05
5.96463e-05
-5.10596e-05
-2.06513e-05
0.000106987
-2.04329e-05
-3.65643e-05
-2.32855e-05
4.68292e-05
0.000104298
-9.16093e-05
8.66169e-05
2.12992e-06
-7.0218e-05
7.64162e-05
-2.34709e-05
0.000143239
1.06955e-05
-9.88281e-05
-3.11407e-06
0.000150766
-0.000107777
-1.07905e-05
2.52259e-05
-2.34239e-05
0.000116873
-7.52213e-05
-3.35191e-05
7.13758e-05
-1.03085e-05
8.70564e-05
-0.000181196
-8.60573e-07
9.36143e-05
6.03353e-05
-9.99911e-05
0.00011311
5.79543e-06
-3.39636e-05
6.96101e-05
4.74083e-07
6.26902e-05
-4.6517e-05
7.78884e-07
-4.93391e-05
6.98739e-05
-6.50789e-05
8.85904e-05
-6.18565e-06
-4.99406e-05
0.000123436
-0.000102329
0.000228976
-0.000156484
3.01986e-05
-3.7906e-05
-6.64852e-06
0.000130523
-4.69958e-05
3.96142e-05
7.68489e-06
8.32349e-05
-0.000165703
0.000220484
-0.000150625
2.05994e-07
9.40857e-05
9.78802e-06
-0.000130536
4.01279e-05
3.56008e-05
5.24979e-05
-0.000101969
0.000157654
-5.85548e-05
8.50534e-05
-5.78112e-05
-2.31364e-05
6.56149e-06
-2.97553e-05
-5.20634e-05
0.000169082
0.000104652
-0.000170178
3.62064e-05
1.33143e-07
0.000151654
-0.000134866
2.15224e-05
-0.000112157
0.00024582
6.65795e-06
-0.000208824
0.000136634
0.000217263
-0.000201799
5.9525e-05
-0.000113313
0.000106975
1.88659e-05
-5.32127e-05
4.72379e-05
8.30448e-05
-0.000236508
0.000168716
1.46447e-05
-3.30085e-05
4.53731e-05
7.44272e-05
-5.49792e-05
0.000110398
0.000131444
-0.000170493
-2.2215e-05
-1.79675e-05
0.000103463
-8.59797e-05
0.000115257
-5.82186e-05
-6.37637e-05
-2.35158e-05
0.000192094
-0.000176444
-0.000117542
0.000137705
0.000141807
-0.000111896
0.000181276
-8.09243e-05
-4.56455e-05
-7.2252e-05
0.000161592
0.000135293
-0.000127734
0.000124928
-0.000149585
0.000198539
-0.000347925
0.000165144
5.84255e-05
0.00017551
-0.000132854
-7.22816e-05
4.70661e-05
4.8487e-08
2.4675e-05
0.000119189
-5.47419e-05
-9.37074e-05
-5.37008e-05
0.000102962
1.69678e-05
-8.41491e-05
-6.9563e-05
0.000118974
0.00015656
9.41344e-05
-0.000176887
0.000102274
-0.000171563
-0.000113401
0.000361275
-0.000242561
0.000205117
-4.66035e-05
-3.16814e-05
-0.000204126
0.000306783
-0.000105249
0.000108935
0.000320702
-0.00110418
1.17979e-05
1.37941e-05
8.33487e-06
6.97247e-06
1.21876e-05
1.11786e-05
1.20584e-05
9.01136e-06
1.71265e-05
1.19956e-05
1.4428e-05
6.9712e-06
3.80587e-06
1.74637e-05
1.77209e-05
-6.31248e-06
3.20645e-05
-1.70631e-06
1.26588e-05
5.23579e-06
-4.04314e-06
2.68717e-05
4.94978e-06
1.4853e-05
1.88755e-05
-3.91114e-06
-5.39366e-06
1.26417e-05
4.43786e-05
7.23403e-06
1.1314e-06
5.65237e-06
2.1325e-05
8.80121e-06
1.6608e-05
-1.18613e-05
2.97682e-05
2.95752e-06
1.19618e-05
-2.38266e-05
4.10267e-05
3.57809e-05
1.09669e-05
-3.02898e-05
8.04702e-05
-3.66116e-05
-2.53189e-05
6.93217e-05
-7.16908e-06
-4.38075e-05
1.37579e-05
6.33065e-05
-1.30503e-05
-1.22003e-05
6.46497e-05
-3.32446e-06
7.53244e-06
2.61882e-05
2.28398e-05
1.36536e-05
1.17998e-05
4.2289e-05
-4.87984e-05
-1.74905e-05
-2.52755e-05
4.60281e-05
3.04377e-05
-6.20295e-05
5.56533e-05
3.18078e-05
-4.26706e-05
2.55918e-05
2.1904e-05
-3.74646e-06
-6.2653e-05
0.000103785
-6.52726e-05
9.20264e-05
-2.08062e-05
-1.00627e-05
3.67792e-05
-5.00437e-05
8.68173e-05
3.69425e-05
-6.33803e-05
2.16906e-05
4.12719e-05
3.84068e-05
-1.98529e-05
-4.44524e-06
-7.89017e-05
5.24134e-05
-5.33362e-05
0.000131451
-7.20328e-05
3.53641e-05
4.74213e-06
4.24234e-05
-3.89241e-05
6.77577e-05
-5.72913e-05
6.89463e-05
-7.99512e-05
5.02373e-05
2.52765e-05
-2.29891e-07
7.62709e-05
-9.57147e-05
3.86508e-05
2.966e-05
-1.42994e-05
6.75506e-05
1.33745e-06
-4.46963e-05
-4.22358e-06
6.41483e-05
-5.06597e-05
0.000135505
-8.92319e-05
9.34506e-05
-7.00738e-05
-7.04375e-05
0.000132865
-1.52666e-05
5.53343e-05
5.51759e-06
-1.66444e-05
-3.09772e-05
6.41897e-06
-0.000122746
0.000236008
8.39449e-05
2.03483e-06
-0.000189879
2.3123e-05
-0.000139343
0.000159738
5.15685e-05
-1.96434e-05
6.95083e-05
-0.000134605
0.000215817
-5.09755e-05
-0.000107146
-1.23495e-05
8.55115e-05
-9.10433e-05
4.17365e-05
0.00023944
-0.000143417
3.57586e-05
-0.000148432
0.000155412
2.48901e-05
-0.000102975
0.000136172
-7.78149e-05
8.90881e-05
-3.82252e-05
0.0001365
5.0763e-05
-3.16781e-05
-4.33157e-05
1.16848e-06
-5.33004e-05
-5.60525e-07
2.01171e-05
-4.97289e-05
-4.44754e-05
2.94773e-05
8.3707e-05
4.4417e-05
-0.000106297
9.56833e-05
9.83242e-05
-4.83967e-05
0.000155747
-2.60782e-05
-0.000114735
0.000154637
-5.41553e-05
-2.76203e-05
-1.82537e-05
-9.23786e-05
0.000102813
7.14012e-05
-9.35487e-05
3.57279e-05
7.16008e-05
0.000116381
-0.000166181
-2.37457e-05
0.000107389
-8.24184e-05
0.000116604
-9.67485e-05
0.000259765
-8.67928e-06
-0.000307467
0.000163345
6.36058e-05
-9.34754e-05
-6.77274e-05
0.000197049
6.16162e-05
-6.56913e-05
2.47292e-05
-0.00031193
0.000375866
-0.000173988
0.000304474
-0.000173635
-6.94492e-05
-4.57709e-06
0.000115636
5.52247e-05
8.40581e-06
-0.000300951
0.00035326
-4.94766e-05
-0.000177634
0.000125732
-9.45513e-05
4.30365e-05
0.000126185
-0.000122182
-2.32125e-05
0.000206617
-0.000123503
9.71801e-06
0.000204014
-0.000156701
0.00015159
-0.000250192
2.07474e-05
-5.34082e-05
4.40021e-05
0.000215708
6.05502e-05
-9.89908e-05
-5.45604e-05
0.000323501
-0.000252415
0.000240851
-0.000193266
-0.000229452
0.000256092
-0.000306708
0.000283107
-0.000149728
7.72917e-05
3.68069e-05
0.00018622
-0.000207678
0.000161569
-0.00139343
1.07971e-05
1.29514e-05
9.44463e-06
1.73743e-05
9.51737e-06
1.50492e-06
2.37179e-05
1.62876e-05
8.92711e-06
3.22008e-05
4.88736e-06
-1.10258e-08
3.17419e-05
-2.04067e-05
4.36705e-05
-1.0844e-05
9.87952e-06
3.58434e-06
3.81965e-05
5.227e-05
-9.84377e-06
4.91712e-06
-9.68399e-06
4.45348e-05
-1.13489e-05
3.59864e-07
-2.83991e-05
0.000119851
-8.37873e-06
2.93686e-05
-1.53708e-05
1.99342e-05
-4.07837e-05
3.85899e-05
-1.67463e-05
8.67368e-05
-5.78355e-05
4.26256e-05
-2.92483e-05
0.000111294
-6.72738e-05
-6.91287e-05
-1.82822e-05
0.000163182
-1.53724e-05
5.82123e-06
6.98378e-05
-3.82073e-05
2.16847e-05
-7.39729e-05
6.66894e-05
1.17044e-05
-3.06964e-05
0.00010756
3.96276e-05
-4.97123e-06
-3.99923e-05
-3.8003e-05
0.000111951
-3.94099e-05
-8.95458e-06
-2.4405e-05
9.90554e-05
-6.41657e-05
2.12523e-05
-4.30315e-05
6.67021e-05
3.19362e-05
-1.71767e-05
-9.07808e-05
0.000115341
3.4261e-05
5.21737e-05
-4.46003e-05
7.12563e-05
-0.000122897
0.000172782
-0.000170625
-4.29287e-05
0.000116009
-4.38795e-05
0.00018109
-0.000108081
7.79628e-05
3.61963e-05
-2.89737e-05
-8.47343e-05
0.000182941
-8.96321e-05
6.78954e-05
-4.50285e-05
0.000198205
-0.000172989
-3.92054e-05
-2.98814e-06
0.000117184
0.000145892
-0.000220333
0.00014046
-8.29967e-05
5.78787e-05
-0.000175164
0.0001653
-2.90673e-05
8.18935e-05
0.000144125
-0.000236496
-2.449e-05
0.000124169
2.66898e-05
4.64204e-05
-3.5267e-05
-1.41695e-06
-6.16123e-05
0.0001777
6.42607e-05
-0.000140151
4.60652e-05
-9.35376e-05
0.000136592
5.31273e-05
-0.000191056
2.66734e-05
8.49749e-05
9.46617e-05
5.84771e-05
-5.39244e-05
-9.4894e-05
-0.000105019
0.000160702
5.62239e-05
-0.000182593
0.000261567
7.05822e-05
2.07028e-05
-0.000262544
4.90578e-05
1.01453e-05
3.06789e-05
-9.90463e-05
0.000166038
9.71667e-05
-0.000128775
2.91275e-05
0.000153718
-8.71458e-05
-0.000178731
9.5207e-05
-1.56878e-05
-1.45799e-05
0.000315324
0.00015562
-0.000391857
0.000104696
-3.23582e-05
-9.88002e-05
0.000226364
-8.88418e-05
-0.00020991
0.000148198
3.25279e-05
8.69919e-05
3.30145e-05
-0.000117084
5.93528e-05
0.000122535
-7.67052e-05
5.71789e-05
-4.62127e-05
0.000103575
0.000146979
-0.000188057
6.79628e-05
0.000135804
0.000203007
-0.000325067
-0.000188018
2.18977e-05
7.36951e-05
3.21112e-06
-5.06772e-05
0.000101211
0.000250172
-0.000266479
0.000331699
-0.000156973
-0.000281129
0.000362309
-4.56157e-05
-0.000373438
0.000468537
-7.97139e-05
-0.000225757
1.63525e-05
0.000372325
-0.000307223
0.000258355
-0.000362819
0.000230686
7.88044e-05
0.000205635
0.000148484
-0.000352991
-7.29891e-06
0.000109341
-8.65596e-05
0.000226601
-0.000279084
2.43432e-05
0.000261935
-0.000143096
5.78846e-07
-9.23669e-05
0.000102154
-0.00021893
0.000402123
-0.000152083
0.000154485
-0.000376089
0.000202787
-7.34076e-05
0.000253116
-0.000137728
4.55965e-05
0.000155343
-0.000392516
4.34482e-05
0.000187485
-0.000233274
-4.71062e-05
0.000386148
-0.000279254
0.000268227
-1.22781e-06
0.000202072
-3.36465e-05
3.82736e-05
-0.000165302
-3.5009e-05
-0.000434
0.000532011
0.000169722
-0.000245202
4.25199e-05
2.39114e-05
0.000163968
0.000149782
-0.000383254
0.000193681
-0.000190343
-7.50944e-05
-0.000100174
0.000472586
-0.00016847
0.000285281
-0.00102569
1.4636e-05
1.29947e-05
1.60167e-05
4.79547e-06
2.49194e-05
3.48239e-05
-4.34704e-06
2.47651e-05
2.46939e-05
1.26105e-05
-2.66e-05
3.4346e-05
2.7787e-05
9.98657e-06
3.3029e-05
1.64391e-06
-8.36346e-06
6.68653e-05
6.53871e-05
-8.67872e-05
2.4659e-07
6.96024e-05
-3.50086e-05
5.38019e-05
4.03303e-05
-4.35122e-05
2.72555e-05
6.67464e-05
-6.38284e-05
-2.79944e-05
9.27281e-05
4.32107e-05
-9.37586e-05
9.96741e-05
2.44209e-05
3.66844e-05
0.00018778
-3.35938e-05
-3.37578e-05
-0.000148133
0.000135172
6.6017e-05
-6.53975e-06
-8.34171e-05
5.97099e-05
-2.10603e-05
-2.76019e-05
9.45982e-05
-0.00011071
0.000142266
7.19948e-06
-3.61191e-05
3.24881e-05
9.8347e-05
-0.000223244
0.000147404
-0.000178174
0.000138518
0.000112408
-4.45778e-05
0.000231177
-0.000228754
6.16045e-05
-8.33502e-05
0.000234565
-0.000130499
-5.40951e-05
7.52382e-05
-7.92549e-05
9.17907e-05
8.80289e-05
-0.00012828
-7.12505e-05
4.7472e-05
8.94813e-05
1.20781e-05
0.000138432
-0.000159757
0.00018216
-0.000126219
-6.27468e-05
0.0001438
0.00012917
-0.000163123
0.000146488
-0.000143634
0.000142252
-6.76449e-05
2.66923e-05
-2.29378e-05
-2.53897e-05
-0.000119574
0.000234794
-3.9357e-06
-5.92531e-05
-3.23189e-05
0.000190803
-9.06099e-05
0.000256297
-7.90334e-05
-0.00012216
5.59998e-05
3.75375e-05
0.000116059
-0.000160657
-0.000123386
8.92409e-05
0.000210364
-0.000244924
7.93944e-05
0.000129943
3.01527e-05
-2.16037e-05
7.59483e-05
3.81455e-05
-0.000283498
0.000381897
-0.00021946
4.10855e-06
3.38472e-05
-6.73452e-05
0.000307818
1.92597e-05
-0.000133629
-8.82814e-05
4.90839e-06
-9.57019e-05
0.000393763
-0.000132183
-8.35087e-05
-8.81497e-05
-2.82862e-05
6.04609e-05
-0.000105473
0.000191576
0.000746059
-0.00042239
-0.000455856
0.000113829
2.03853e-05
0.000205615
-1.97205e-05
-0.00017097
0.000107927
0.000152127
-7.56121e-05
0.000195433
0.000309247
-0.000338184
0.000299469
-0.000463901
0.000112892
2.95791e-05
-0.000290831
0.000242171
9.67286e-05
-0.000333279
8.03149e-05
0.000712034
-0.00067308
0.000459531
-0.000134851
-5.74691e-05
3.61369e-05
4.40644e-05
-8.66231e-05
-0.000128026
6.12721e-05
0.000184883
-0.000156615
0.000102467
-0.000155994
0.000524886
-0.000278844
-0.000165162
-0.000100603
0.000103462
0.000399397
-6.7187e-05
0.000112772
-0.000267005
-0.000127585
0.000312319
-0.000117016
-0.000434291
0.000700485
-0.000109377
-6.49411e-05
3.26855e-05
6.54619e-05
8.58666e-05
-0.00042273
0.000289342
3.70935e-05
-0.000153275
2.18381e-06
-7.38426e-05
0.000297692
-0.000141247
-0.000259326
0.000296147
-0.000191034
0.000144151
0.0007805
-0.000528272
0.000154323
-0.000451681
0.00050458
-0.000589935
-1.83525e-05
0.000128917
0.000271553
0.000178323
0.000459498
-0.00072131
-9.03027e-05
0.000130587
0.000484623
5.25089e-05
-0.000209808
0.000225392
-8.90919e-05
-0.000433863
-0.000301538
0.000158682
0.000590414
5.31715e-05
-1.77087e-05
-0.000299119
-0.000103655
-0.000357571
0.000537912
7.29809e-05
-1.87129e-06
-3.88954e-05
-0.000602461
0.000860613
-0.000572476
0.000763475
-0.000183977
-7.62053e-06
0.000173482
-8.98368e-05
-0.000385576
0.000444653
-0.000350784
7.23819e-05
0.000355567
-3.71339e-05
-0.000409666
0.000583294
-1.5506e-05
-0.000190343
-0.000173943
-0.000387672
-0.00196606
1.76809e-05
1.4171e-05
2.2167e-05
2.48821e-05
8.13499e-06
3.61716e-05
-9.89176e-06
1.12036e-05
-6.05994e-07
-2.1529e-05
4.64308e-05
6.57388e-05
-2.63979e-05
7.20729e-06
1.27698e-05
-1.51458e-05
8.49071e-05
-4.57153e-05
-3.46529e-06
0.000114224
-9.06722e-06
4.10766e-05
3.80135e-05
-4.76733e-05
-2.72426e-06
9.40174e-05
-3.39166e-05
-4.16849e-05
6.99805e-05
2.99527e-05
-5.4405e-05
1.68023e-05
9.32729e-05
-4.0283e-05
4.69559e-05
-1.25492e-05
-1.55857e-05
-5.81443e-05
0.000127634
8.72013e-05
0.000156363
-0.000155826
0.000176738
-0.000113218
5.82621e-05
-0.000197415
-1.18549e-05
0.000237986
-1.21724e-05
8.67005e-05
1.92731e-05
9.4972e-06
-6.81144e-05
-1.04297e-05
0.000117471
-0.000165743
0.00040405
-0.000239736
-0.000165735
0.000305489
-0.000467324
0.000331672
-1.73582e-05
-7.62991e-05
-8.80427e-05
0.000278563
-6.04754e-06
-9.3037e-05
6.53088e-05
6.1021e-05
3.23252e-05
0.000237422
-0.000278399
-0.000110726
2.01539e-05
0.000120013
-0.000142878
0.000221209
3.12967e-05
-1.16497e-05
0.000258979
-0.000285676
-0.000228277
0.000202816
-6.98127e-05
-9.01071e-06
1.91821e-05
0.000168672
-3.96547e-05
-0.000293656
0.000271149
1.99561e-05
0.000198036
-5.25577e-05
0.000112208
-4.71402e-05
-0.000312991
0.000312018
-0.000212508
0.000166712
-9.30403e-06
-5.79627e-06
-8.52722e-05
1.07703e-05
-5.77991e-05
0.000231006
-1.20702e-05
0.000137682
1.28437e-05
-0.000188827
1.84831e-05
0.000137151
0.000106658
-9.84786e-05
2.80308e-05
0.000149714
-0.000304254
0.00010924
0.000361227
9.65018e-05
-0.00036044
-0.000144154
-9.66716e-05
0.000309296
-0.000394426
0.000501796
-0.000103067
-0.000133846
0.000295746
0.000351849
-0.000222231
-0.000237657
0.000194141
0.000657839
-0.000823204
0.000275018
-0.000812921
0.00110244
-0.000277985
-0.000362617
-6.35752e-05
1.11388e-05
0.000262877
5.61214e-05
0.000133448
0.000600908
-0.000636373
-0.000282415
0.000556717
-0.000668232
-0.000221926
0.000537749
0.000466794
-0.000426094
0.000685478
-0.00040788
-8.23625e-05
-0.000264694
-0.000338382
0.000267591
-0.000375414
0.000602319
-9.73167e-05
0.000178317
4.09272e-06
0.000460255
-0.000332999
5.12897e-05
-0.000301198
0.000485871
-0.000631745
0.000156259
0.000230312
9.86403e-06
0.000179159
0.000986061
-0.00104585
-0.000200377
0.000197836
0.00015497
-5.09638e-05
9.26808e-05
-0.000571615
8.32806e-05
0.000522708
-0.000258899
0.000218434
-8.36946e-05
-0.000380021
0.000139817
0.000338433
-0.000194505
6.82404e-05
-0.000152886
-0.000142626
0.000343536
0.000372483
-0.000561298
3.12356e-05
-5.47479e-06
-2.63533e-05
0.000926362
-0.000599868
-0.000723561
-2.25996e-06
0.000589602
8.74958e-05
-0.000487906
0.00138203
-0.000501361
-0.000312183
0.00116921
-0.00107935
7.08177e-05
0.000616138
0.000341728
-0.00114573
-0.000309621
0.000263385
6.83905e-05
6.90566e-05
-0.000880326
0.00170619
0.000359538
-0.00112667
-0.000216719
7.73276e-05
0.000850422
-0.000272782
0.000550401
-0.000485084
-0.000591232
0.000548195
-0.000188299
2.94059e-05
0.000489481
6.70908e-05
-4.70043e-05
-0.000689245
-0.000276461
0.000250214
-0.00050514
0.00100544
0.000178348
-0.000797674
0.000765871
-0.00060315
8.41442e-05
0.000820834
-0.000674129
-0.000222999
0.000996736
-0.000571683
-4.64473e-06
0.000421078
-0.00215701
5.55695e-06
1.96695e-05
2.97772e-05
-4.73603e-06
2.58127e-05
-1.72426e-05
6.3633e-05
-1.55669e-05
4.67651e-05
1.92074e-06
8.64121e-05
-9.29512e-05
0.000149444
-0.000101066
4.60997e-05
0.000113829
-5.1124e-05
7.26672e-05
-1.43529e-05
-9.3602e-06
9.68678e-05
-8.80385e-05
0.000136848
-0.00012379
3.16448e-05
-4.49138e-05
0.000149951
-1.98485e-05
0.000141953
-0.00011959
2.58456e-05
-4.87687e-05
0.000185108
0.000114187
-2.06176e-05
-5.97489e-05
-3.32727e-05
0.000119711
-5.9652e-05
0.000104021
-0.000175987
9.42523e-05
-0.000233996
0.000300304
-0.000230621
0.000490889
-8.46784e-05
-0.000283484
-5.94859e-05
0.000347927
-0.000130362
-8.99861e-05
0.000312616
0.000256743
-0.000541301
0.00044665
-0.000173889
-2.00677e-05
0.000302678
-0.000724601
0.000254617
0.000145167
2.17498e-05
0.000447522
-0.00024414
-5.12016e-05
0.000142032
-4.12485e-05
-0.000240159
0.000227008
0.000136434
-0.000244834
6.29081e-05
-5.90644e-05
0.000255442
-0.000178067
1.18163e-05
0.000103079
3.39991e-05
0.000619285
-0.000719263
-1.56717e-05
0.000145973
-4.2221e-05
4.56777e-05
0.000198564
-0.000309182
2.06269e-05
-0.000169029
0.000695958
-0.000269192
0.000485471
-6.98075e-05
-0.000160968
-0.000271475
0.000346163
-0.000485247
0.000242799
-9.7721e-05
0.00015117
0.000110581
0.000154011
-0.000310882
0.000114477
9.98359e-05
0.000191842
0.000197972
-0.000860768
-0.000127371
0.00143244
-4.70246e-05
-0.000960601
-0.00033667
0.000714632
0.00016247
-0.000474089
0.000139836
9.01885e-05
0.000187376
3.60064e-05
-0.000128266
-0.000116436
0.000101772
0.000269305
-0.000289862
-0.000371063
0.000352594
2.02712e-05
3.69143e-05
0.000472323
3.76515e-05
0.000449689
-0.00114111
-0.000496408
0.0014486
-0.00110822
0.000204584
-0.000864796
0.000984271
0.00126247
0.000171876
-0.00112246
-0.000102753
-0.000308624
7.65867e-05
0.000531144
-0.000109293
-0.000537423
-4.42217e-05
0.000286251
0.000975784
-0.000715548
-5.73745e-05
0.00129193
-0.00165523
0.000309325
0.000679425
-0.000495531
0.000313076
-0.000463057
0.000720561
-0.00029245
-0.000137915
0.000372454
-0.000372178
0.000160306
-4.74807e-05
0.000743548
-0.00105096
0.000587137
3.13954e-05
0.000887759
-0.000388766
-0.0013248
0.00025532
0.000104794
0.000487781
-0.000205062
0.000931746
-0.000642141
-7.90889e-05
0.000815614
-0.000834112
0.000609187
-0.00120126
-6.58368e-05
-1.63371e-05
0.00104999
6.20931e-05
2.12867e-05
-0.000384175
2.45844e-05
-0.000382358
0.000840227
-0.000518651
0.000974825
-0.0014265
0.000959488
-0.000957859
0.001588
-0.000671299
-0.00059527
0.000737409
-0.000968582
0.00188417
-0.00122607
0.000265132
-0.000183085
0.000406009
0.000617344
-0.000792432
-0.00178629
0.00139749
-0.000154967
0.000470309
-0.000470839
0.00155754
0.000462522
-0.00192706
-0.000105372
-3.90457e-06
0.00084791
-0.00129643
0.00170412
-5.48936e-05
-0.000449856
0.000773286
0.000143995
0.000124833
-0.00209273
0.000800772
0.000592469
-0.000639843
0.00101971
-0.00157486
0.00192275
-0.00108449
-0.00023267
0.000404785
0.00067916
0.000723882
-0.00118971
-5.46397e-05
2.62801e-05
0.00120954
-0.00213339
0.00154707
-0.00105786
-0.00110634
0.00123832
-7.99141e-05
0.000220144
0.00130366
-0.00103471
0.000173161
-0.004101
4.53898e-05
1.91973e-05
5.35053e-05
3.94414e-05
-1.04484e-05
2.20162e-05
1.66488e-05
8.8668e-05
-1.11305e-05
0.000126397
-5.62453e-05
8.55785e-05
-0.000115143
0.000257175
-1.05498e-05
1.95853e-05
6.20927e-05
-9.22356e-05
-7.54576e-05
0.00017392
-9.86068e-05
3.87483e-05
6.70321e-05
0.000215699
-9.27962e-05
0.000173715
-0.000107579
0.000127219
0.000196743
-0.000410804
0.000124795
2.38329e-05
0.000232204
-5.76265e-05
-6.01699e-05
-0.000136912
0.00014956
4.31089e-05
0.000185218
-0.000382338
0.000382858
-5.52884e-06
3.21509e-05
8.21258e-05
-0.000129248
-7.2577e-05
0.0003315
0.000183515
-0.000104534
-0.000314703
-6.16112e-05
0.000331777
0.000282732
-0.00047749
0.000299725
0.000271435
-0.000123957
0.000350336
-0.000637445
0.000699378
-0.000707217
0.000520983
4.01454e-05
-7.90625e-05
-0.000547572
0.000366776
5.0957e-05
-0.000314078
0.00036269
0.000221952
-0.0008957
0.000408399
0.000153423
0.000459551
0.000231058
0.00056748
-0.000826256
7.22356e-05
0.000159973
-0.000824394
0.000741877
-0.000391192
2.05572e-05
0.000652988
-0.000681718
0.000471375
0.000895417
-0.00104129
0.000715244
7.67568e-05
-0.000601992
-0.000105788
-0.000116183
-7.41842e-05
0.000822529
-0.00049537
0.0002321
-4.75321e-05
0.000670897
-0.000106448
-0.000407185
-0.000587181
0.000649438
-0.000278909
0.00016155
0.000365403
-0.000513025
0.000869615
0.000506436
-0.00154214
6.51283e-05
0.00107973
-0.000828676
7.68267e-05
0.000870316
-0.000352413
-0.000297849
0.000195896
-0.000332014
0.000302218
-0.000470398
0.000207664
0.000633429
3.93576e-05
0.000599633
0.000577106
-0.0019376
0.00181175
-0.00140423
-0.00032524
-0.000697692
0.000106632
0.00170512
0.000112723
-0.000490418
-0.000352987
0.000967397
3.34333e-06
-0.000503237
-0.000259786
0.000251996
-0.000243272
0.000474912
0.000112385
-0.000428036
0.000182996
0.000635342
-0.000172757
-0.000756816
0.00125155
-0.00103482
0.000245862
-0.000208612
0.000249583
0.000305955
-0.000261114
-0.000140115
0.000716892
0.00014089
0.000330792
-0.0010041
0.000194857
-4.91228e-05
-0.000276327
0.00140978
-0.00201402
0.000916133
-0.000142847
0.000224142
0.000419348
4.87174e-05
-0.00146269
0.0005486
0.00355184
-0.00260537
-0.000427802
0.000519606
-0.000158738
0.000200537
0.000376666
-0.00142474
0.00108666
-0.000632816
0.000118455
0.00127392
-0.000525874
-0.000139566
-0.000877641
0.000214137
0.000731283
-0.000165871
0.00086502
-0.00158918
0.000330108
0.000346742
0.000819019
0.000113501
-0.000352764
0.000247819
-0.00143039
0.00110026
-0.000335258
-0.000312181
0.00223707
-0.00216789
0.0002537
-0.000909703
0.00165982
-0.00103641
-0.000505876
0.00198561
0.000133084
0.000868086
-0.00135852
-0.00126173
0.000634053
-0.00137076
0.0016207
0.000288748
0.000957952
-0.000648925
0.000345069
0.000752031
-0.00144691
-0.000323297
0.000245914
-1.17127e-05
0.00147721
-0.0025095
0.000448403
0.00314394
-0.00152456
0.000320343
0.000558783
-0.000900205
-0.00234948
0.000301595
0.00114943
-0.000660749
0.000761495
0.000200625
-0.000648837
0.00180992
-0.0017808
0.00209572
-0.00153864
0.000213671
0.00174978
-0.00208687
-0.00141032
0.00135005
-0.000411773
0.000283609
0.00223623
-0.000256804
-0.00367373
1.78868e-05
7.31666e-05
-3.13687e-05
6.14796e-05
9.30822e-05
4.03174e-05
6.75451e-05
-5.1727e-05
-6.35261e-05
0.000126791
7.20541e-05
1.3159e-05
2.93565e-05
-5.20687e-05
-5.85654e-05
2.13129e-05
7.48448e-05
1.31424e-05
8.68495e-05
-3.80955e-05
3.88636e-05
0.000151509
-0.000315621
0.000130679
0.000365139
-0.000182059
-5.05078e-05
7.5165e-05
-7.86322e-05
0.000204127
0.000357694
-0.000102456
-0.000384664
5.62466e-05
0.000165339
0.000355913
-0.000126362
-0.000353849
0.000185803
0.00049153
-0.000275272
0.000226303
0.000268608
-0.000673995
0.000465833
-0.000170979
0.000210707
0.000201908
-0.00011156
-0.00039175
0.000184989
0.000361362
-0.000459574
0.000462301
4.07762e-06
-0.000207232
-0.000492526
0.000163993
0.00103462
-0.00059283
0.000814017
-0.000693978
-0.000104802
-0.000287198
0.000869124
0.000273388
-0.000807089
-7.01923e-06
4.91983e-05
9.56696e-05
0.000806262
-0.000435723
0.000401677
-0.000530353
0.000210174
2.31513e-05
-0.000195105
6.19066e-05
-0.000152921
-0.000319069
0.000812697
-0.000217078
0.00042223
-0.000384722
-0.000474188
0.00122245
-0.00117084
0.00136012
-0.000790442
-0.000615281
0.00117974
-0.00138307
0.000990485
-4.72263e-05
0.000210092
-0.000514863
0.000501578
0.000206789
-0.00125271
5.89539e-06
-0.000164546
0.00125887
0.000296416
0.000566736
4.79074e-05
-0.00099732
0.000505618
-0.000838021
-0.000104754
0.00154224
-0.00136619
0.000590178
0.000488389
-0.000170031
-0.0014376
0.00116732
5.21945e-05
0.000930686
-0.000850437
-0.000827528
0.00153662
0.000155196
-0.000373216
0.00014171
0.000145079
-0.000703113
-8.88846e-05
-0.00050247
0.00116626
-0.00132511
0.00126401
-0.000235747
0.00048823
7.44386e-05
-0.000950686
0.000599461
0.000887717
-0.000805202
-0.000348041
-0.000199255
-0.000444546
0.000788259
0.000526898
0.000650262
-0.00101727
-0.00183956
0.000800767
0.00163576
0.000187976
6.46223e-05
-0.0013482
-0.000404542
0.00204286
-0.0024076
0.00206443
-0.000942801
0.000566453
-0.0015895
0.00051486
0.000706048
0.000953489
-0.000902741
0.00122192
-0.000665325
-0.000101249
0.00170422
-0.00209467
0.000525764
0.00137634
-0.00261422
0.00100453
0.000426001
0.000838367
-0.00277082
0.0012633
0.000969696
-0.0016907
0.00223232
-0.00058995
-0.000309747
0.00203053
-0.00220286
-5.38288e-05
0.00266851
-0.00102951
-0.000307646
0.00130914
-0.0017567
0.0010542
-0.0026444
0.00315377
0.000353824
0.00215422
-0.00202397
0.000137027
-0.00375821
0.00120972
-0.000594088
0.000836273
-0.000557098
0.00163364
-0.000234725
-0.000179196
-0.00207031
-7.57438e-05
0.00354616
-0.00024099
-0.00135087
0.00184174
0.000550653
-0.00392442
-0.000176707
0.000799299
-0.000451577
0.00145317
0.00130277
0.00042819
-0.00154535
0.000925165
-0.00109663
0.00295491
-0.00413176
0.00155091
0.000863977
-0.00179813
0.00236053
-0.000875774
-0.00233808
0.00206099
0.00150991
-0.00410351
0.00320324
-0.00270333
-0.000667315
0.001509
-8.0587e-06
0.000838766
-2.94108e-05
-0.000903483
0.000909942
-0.000907785
0.00420153
-0.00459581
0.000244106
0.00129037
0.00186211
-0.00120513
0.000970224
0.00198304
-0.000921118
-0.001669
0.000296036
-0.00277739
0.000124854
0.00259191
-0.00249763
5.52567e-05
2.91454e-05
3.83013e-05
6.54661e-05
4.0483e-05
-3.55914e-05
6.0907e-05
7.39632e-05
0.000109138
-0.000178196
0.000230848
-0.000142774
0.000302949
-5.5895e-05
-2.68286e-05
-8.11275e-05
0.000253646
-0.000337645
0.000163394
0.000257935
-0.000136471
7.18136e-05
0.000223205
7.22702e-05
-0.000287113
0.000204862
-8.77169e-05
0.00045249
-0.000585516
0.000825629
6.74509e-05
-0.00051716
0.00014908
-0.000235768
0.000251708
-0.00019683
0.000715006
0.000114685
-0.000183554
-0.000478874
1.02715e-05
0.00105232
-0.00102388
3.29873e-05
0.000662354
0.00026535
0.000326534
-0.000491769
-0.000348585
0.000339522
0.000313784
-0.00058271
0.00027487
-0.000443302
0.000410729
0.000319748
6.0318e-05
0.0002098
-0.000724017
0.00022784
0.000573782
8.04898e-05
0.000145315
-0.0009743
0.000261345
-0.000421843
0.00031686
0.000436567
0.000294666
0.000156619
-0.000767178
0.000210181
-0.00064218
0.000591759
0.000753282
-0.00123723
0.00103119
-0.000796231
-0.000237322
0.0011053
-0.000862212
0.000646237
-0.000987402
0.0010998
0.000674612
-0.00153857
0.000523215
0.000732415
0.000594236
-0.000202272
-0.001009
0.00162585
-0.00174
0.000184319
-0.000104289
0.00120691
0.000182841
-0.00159222
0.000571884
0.000703329
-0.000764458
-0.000760296
0.00102397
0.000654355
0.000225877
-0.00107624
0.000867692
0.000397648
-0.00101837
0.000325911
0.000256448
0.000139454
0.000905702
-0.00173986
0.00022966
0.00093363
-0.00112903
-0.000102207
9.60671e-06
0.000481136
-0.000289049
-0.000181044
0.00114651
0.000209142
-0.000758499
0.000704384
0.00155522
-0.00348594
0.000638955
0.00365831
-0.00225164
0.000889643
-0.00107275
-0.0016069
0.00113145
0.000886851
-0.000808643
-0.000937797
0.00227272
-0.000106569
0.000509612
0.000215474
-0.00150358
-0.00140972
0.00352207
-0.00122593
0.000648293
-0.000690095
2.13649e-05
-0.00153162
0.000958012
0.0023304
-0.00100361
0.000189954
-0.00225442
0.00101108
-2.99531e-05
0.00273363
-0.00181679
-0.000103324
-0.000404611
0.00117572
-0.00112326
0.00154474
0.000767929
-0.00164412
0.000247645
0.00126555
-0.00340798
0.00123719
-0.00125209
0.00222273
-0.00208658
0.00205575
0.000512155
-0.00287782
0.00323262
-0.00288069
0.000623534
-0.000660935
0.0009555
-2.62696e-05
0.00195702
-0.00425335
0.00563996
-0.00184565
-0.00334048
0.00232278
-4.10858e-05
0.0016068
0.000562789
-0.00314883
0.00172385
-0.0032834
0.00173761
0.00393888
-0.00188249
0.00151505
-0.000314839
0.000815527
-0.000326041
-0.001185
0.00111325
-0.00203758
0.0052001
-0.00300962
0.00217801
-0.0063739
-0.00262658
0.00682694
-0.000979271
7.93921e-05
-0.00353168
0.00330146
0.000472912
-0.00292562
0.0029115
-0.000294668
0.0027164
-0.00321611
0.00106276
-0.00163604
0.00228815
-0.0017877
0.00123047
-0.00218562
0.00483448
-0.00402978
0.00110289
-0.00053717
0.00189907
-0.00377043
0.00408604
-0.00143933
-0.000719422
9.93043e-05
0.00331235
0.00102313
0.00024269
-0.00191514
0.00103228
-0.00475835
0.00105529
0.00317158
-0.00463365
0.00243349
-0.000370234
5.81035e-05
0.00164491
0.0020934
-0.00381649
-0.000186461
0.000455631
0.00391954
-0.00509329
-0.00383605
7.96192e-05
6.04085e-05
0.000164383
1.63773e-05
1.01016e-06
0.000176347
-4.73372e-05
0.000218704
4.20183e-05
0.000184126
-9.19957e-06
9.76363e-05
-0.000167126
0.000249432
0.000157189
0.000294256
-0.000620751
0.000813309
-1.08376e-05
-0.00038845
5.83741e-05
0.000480187
-0.000366781
0.000112559
0.000866547
-0.00116909
0.00151799
-0.000976812
0.000713509
-0.000948813
-0.00026494
0.00090254
-8.84056e-05
5.06298e-05
0.000155208
0.000504244
-0.000129451
0.000201299
0.00017704
-0.000777092
0.000929907
-0.000489687
0.000171635
7.68014e-05
-7.53427e-05
7.31484e-05
-0.000758838
0.000540853
0.00165051
-0.000212327
-0.000331058
-0.000702552
0.00072046
0.000432177
5.0483e-06
0.000602529
-0.000430102
-0.000196722
-0.000833128
0.00206151
-0.000482157
-0.00133158
-0.000330326
0.00131275
-0.00159734
0.00123594
0.00140938
-0.00106905
-4.5259e-05
-0.000736507
-0.00047288
0.00175952
-0.000893024
0.000408202
-0.000421294
-0.000342516
0.000202849
0.000677139
0.000964957
0.00080997
-0.00210127
0.000946914
-0.00018457
-0.00123075
0.00296625
-0.0014829
-3.38371e-05
-0.000682374
-0.000588678
0.00163595
0.000827952
-0.0013205
0.00264092
-0.00248828
-0.00169163
0.00233308
-0.0016164
0.00110088
0.00244239
-0.00322099
0.00195825
0.00320958
-0.00279685
0.00150287
-0.00145972
0.00161864
6.2551e-05
-0.000579237
-0.00229695
0.000993356
-0.000240147
-0.001798
0.00214845
-0.000590298
4.29442e-05
0.00163439
-0.000366028
-0.00174307
0.00210373
-0.000160553
-0.00330467
0.00322095
-0.0027149
0.00147207
0.00105369
-0.00028963
-0.0021539
0.00706213
-0.00501078
-0.00174161
0.00191134
0.00123415
-0.00145524
-0.00113573
0.00349751
-0.00262475
0.00335281