# vtk DataFile Version 1.0
Ion Density - Current Sheet
ASCII
DATASET STRUCTURED_POINTS
DIMENSIONS 256 128 1
ORIGIN 0 0 0
SPACING 0.15625 0.15625 1
POINT_DATA 32768
SCALARS rhoi float
LOOKUP_TABLE default
4.13221e-20
4.97716e-20
4.63575e-20
6.76038e-20
4.08463e-20
1.01198e-19
8.7751e-20
5.82148e-20
5.1076e-20
6.49416e-20
5.9369e-20
5.42742e-20
5.10217e-20
5.74006e-20
4.48353e-20
9.13918e-20
7.34107e-20
1.07136e-19
6.98624e-20
4.96212e-20
7.76121e-20
6.07544e-20
6.25818e-20
6.98768e-20
8.27432e-20
7.17375e-20
9.09086e-20
8.28894e-20
8.04079e-20
6.93805e-20
7.07604e-20
4.08177e-20
6.76621e-20
6.3909e-20
3.22513e-20
4.6841e-20
8.66628e-20
1.09298e-19
1.11517e-19
5.04421e-20
7.54716e-20
5.60344e-20
3.457e-20
4.71934e-20
5.82189e-20
6.36558e-20
5.42233e-20
5.91638e-20
3.65298e-20
1.04516e-19
6.16609e-20
6.08428e-20
7.68988e-20
9.05127e-20
7.01014e-20
7.90926e-20
3.47328e-20
3.70264e-20
5.84088e-20
5.55489e-20
8.95253e-20
3.75055e-20
2.76318e-20
4.4813e-20
5.30788e-20
6.70051e-20
7.81225e-20
8.01875e-20
7.63432e-20
5.32577e-20
7.06535e-20
6.10527e-20
7.05602e-20
4.74169e-20
2.20046e-20
2.84463e-20
6.20445e-20
5.06963e-20
5.93379e-20
5.05081e-20
9.92394e-20
6.96889e-20
8.09505e-20
4.9688e-20
5.12274e-20
1.06371e-19
5.20931e-20
7.41352e-20
7.34101e-20
7.20917e-20
4.55562e-20
5.89887e-20
5.98053e-20
9.03705e-20
6.35206e-20
1.00785e-19
5.76456e-20
1.07301e-19
5.8831e-20
8.15736e-20
3.29698e-20
7.34576e-20
8.86554e-20
9.26499e-20
5.62952e-20
5.38801e-20
4.72994e-20
6.67269e-20
6.32298e-20
6.82108e-20
6.54643e-20
7.23417e-20
6.64549e-20
9.36055e-20
6.1694e-20
5.57338e-20
6.54781e-20
5.69864e-20
6.26288e-20
7.41419e-20
4.17429e-20
5.76554e-20
8.33708e-20
8.61496e-20
8.44932e-20
7.01342e-20
1.04458e-19
1.04462e-19
4.49009e-20
4.0632e-20
4.43877e-20
6.43209e-20
3.90208e-20
7.03794e-20
7.71852e-20
8.48279e-20
6.60022e-20
8.23779e-20
7.76828e-20
9.0783e-20
7.49621e-20
4.73736e-20
5.71138e-20
7.31273e-20
6.53618e-20
8.18865e-20
5.64934e-20
7.04658e-20
4.6509e-20
6.82098e-20
5.22929e-20
6.69749e-20
7.93961e-20
7.04428e-20
5.56348e-20
1.41394e-19
3.71848e-20
5.50381e-20
3.95972e-20
6.15912e-20
9.89157e-20
2.89541e-20
5.05088e-20
8.50134e-20
9.19214e-20
8.37784e-20
4.63783e-20
4.10009e-20
5.40374e-20
8.36737e-20
6.69655e-20
4.80821e-20
9.35371e-20
6.11161e-20
8.54173e-20
5.26481e-20
7.21949e-20
6.47665e-20
3.85847e-20
4.48652e-20
7.77424e-20
6.00234e-20
8.9419e-20
5.53832e-20
5.34305e-20
4.06791e-20
8.29537e-20
3.2645e-20
6.58647e-20
8.11372e-20
8.15493e-20
6.11375e-20
5.72147e-20
8.6202e-20
5.97721e-20
5.42717e-20
5.7058e-20
3.19583e-20
4.70481e-20
8.37933e-20
5.44651e-20
6.00409e-20
6.97561e-20
1.96703e-20
6.24837e-20
7.52172e-20
7.48026e-20
5.80716e-20
9.99331e-20
4.67726e-20
9.93044e-20
6.23123e-20
7.97005e-20
6.76356e-20
8.65665e-20
6.48037e-20
6.24858e-20
6.22041e-20
7.45769e-20
7.87609e-20
4.01214e-20
4.1489e-20
8.29401e-20
7.67491e-20
7.59473e-20
5.18101e-20
5.75311e-20
7.83356e-20
8.88481e-20
1.02116e-19
7.39329e-20
6.90478e-20
5.82863e-20
7.27169e-20
6.09247e-20
6.56019e-20
6.22178e-20
4.4478e-20
5.48605e-20
3.6561e-20
6.00986e-20
7.61291e-20
8.43064e-20
7.16194e-20
5.18029e-20
6.461e-20
8.23476e-20
9.19259e-20
6.36751e-20
5.41394e-20
3.03168e-20
8.09448e-20
6.11651e-20
6.84492e-20
6.52867e-20
8.84101e-20
1.49972e-19
1.56658e-19
1.17402e-19
1.20114e-19
1.29888e-19
1.7396e-19
1.46764e-19
1.38689e-19
9.99933e-20
1.09054e-19
1.16157e-19
1.1188e-19
1.28503e-19
1.0471e-19
7.41113e-20
1.06524e-19
1.33892e-19
7.98784e-20
9.64715e-20
1.07623e-19
8.49764e-20
1.28401e-19
1.00879e-19
1.1684e-19
1.02919e-19
1.73538e-19
9.49075e-20
1.11531e-19
1.3133e-19
1.3726e-19
1.22941e-19
1.05213e-19
9.37532e-20
1.44818e-19
1.35816e-19
1.58287e-19
1.04732e-19
1.29171e-19
1.06645e-19
1.30422e-19
9.56266e-20
9.68027e-20
1.18102e-19
9.78181e-20
1.11655e-19
1.60652e-19
1.24882e-19
1.42999e-19
1.37236e-19
1.62442e-19
1.23456e-19
1.40143e-19
8.53349e-20
9.76661e-20
1.52031e-19
1.33238e-19
1.12057e-19
1.22303e-19
1.28064e-19
8.15465e-20
9.56293e-20
1.06035e-19
1.20891e-19
1.26177e-19
1.22194e-19
1.06891e-19
8.0669e-20
1.48072e-19
1.45107e-19
1.63816e-19
1.153e-19
1.14732e-19
1.42021e-19
8.21682e-20
9.47168e-20
1.45116e-19
9.81916e-20
1.27093e-19
8.4138e-20
1.30307e-19
1.58357e-19
1.02813e-19
6.62592e-20
1.34926e-19
7.49499e-20
1.15495e-19
8.40392e-20
1.1201e-19
1.48118e-19
1.03718e-19
9.38016e-20
1.54511e-19
1.29124e-19
1.05356e-19
9.80367e-20
7.41091e-20
1.06603e-19
1.69049e-19
1.3061e-19
1.57258e-19
1.27258e-19
1.00932e-19
1.15285e-19
1.11756e-19
1.20446e-19
1.29121e-19
7.54378e-20
1.03432e-19
1.29599e-19
1.31522e-19
1.04097e-19
1.20892e-19
1.28322e-19
9.44156e-20
1.2138e-19
1.73611e-19
1.65537e-19
1.4413e-19
1.49039e-19
9.74995e-20
7.79113e-20
7.83555e-20
1.34624e-19
1.43913e-19
1.10921e-19
8.77496e-20
1.46926e-19
1.1023e-19
9.60223e-20
1.1761e-19
7.7843e-20
1.17561e-19
1.26645e-19
1.42671e-19
1.67173e-19
1.55921e-19
1.34129e-19
1.16933e-19
1.41195e-19
8.94033e-20
8.81874e-20
1.25182e-19
1.29843e-19
9.04081e-20
1.24586e-19
1.41644e-19
1.27261e-19
1.15626e-19
9.39757e-20
1.76153e-19
9.60126e-20
1.42508e-19
1.47595e-19
1.07657e-19
1.13443e-19
1.22628e-19
1.28924e-19
1.2789e-19
7.07113e-20
1.46705e-19
8.50446e-20
9.7011e-20
1.54491e-19
1.26871e-19
1.03276e-19
1.24418e-19
9.28618e-20
1.60188e-19
1.46824e-19
9.88597e-20
1.1498e-19
8.40145e-20
1.35977e-19
1.45767e-19
1.13578e-19
1.02854e-19
1.40973e-19
1.35188e-19
1.07948e-19
1.37757e-19
1.06041e-19
1.24398e-19
8.17718e-20
1.80456e-19
9.7636e-20
8.80953e-20
8.58078e-20
8.99614e-20
1.68731e-19
1.73209e-19
7.90982e-20
9.19148e-20
8.93533e-20
9.22272e-20
9.97662e-20
1.42625e-19
1.46673e-19
7.70721e-20
9.93639e-20
1.08435e-19
1.43781e-19
1.47671e-19
1.05024e-19
1.35294e-19
1.36831e-19
1.02533e-19
1.3621e-19
1.07553e-19
1.23836e-19
1.43848e-19
1.23762e-19
9.24995e-20
1.47662e-19
1.51728e-19
1.04288e-19
1.14171e-19
1.01397e-19
9.72373e-20
1.20923e-19
9.96215e-20
1.43148e-19
1.26184e-19
1.64422e-19
1.54942e-19
9.35984e-20
1.31374e-19
1.04807e-19
1.19901e-19
1.43985e-19
1.70234e-19
1.11649e-19
7.2851e-20
7.45263e-20
9.26756e-20
1.56478e-19
9.30567e-20
1.17964e-19
7.9796e-20
7.84343e-20
1.6971e-19
1.1e-19
1.60772e-19
1.78275e-19
1.26189e-19
1.14124e-19
1.12827e-19
1.40114e-19
1.01569e-19
1.22611e-19
7.08003e-20
1.26076e-19
1.08115e-19
1.44631e-19
1.33633e-19
1.31892e-19
9.96714e-20
2.23696e-19
1.71784e-19
1.42784e-19
2.10259e-19
2.11436e-19
2.39207e-19
2.17002e-19
1.64476e-19
1.72374e-19
2.48723e-19
2.04699e-19
2.24797e-19
3.56279e-19
1.66516e-19
3.09226e-19
2.83099e-19
2.54736e-19
2.0302e-19
2.07579e-19
2.01061e-19
1.76199e-19
1.9453e-19
2.25932e-19
2.87968e-19
2.96562e-19
2.26711e-19
1.51708e-19
2.06183e-19
1.83023e-19
1.87996e-19
1.94978e-19
2.40249e-19
1.84849e-19
1.2059e-19
1.94586e-19
1.88128e-19
2.48969e-19
2.92777e-19
2.51575e-19
1.94364e-19
1.97767e-19
1.17543e-19
2.01213e-19
2.03036e-19
1.62238e-19
1.89728e-19
9.02891e-20
2.3361e-19
2.75813e-19
2.2904e-19
2.25523e-19
1.33674e-19
1.6194e-19
1.73022e-19
1.89253e-19
1.83716e-19
1.57065e-19
1.30844e-19
2.2526e-19
1.9855e-19
1.28831e-19
1.17583e-19
2.05022e-19
2.00718e-19
2.05471e-19
1.32496e-19
2.15512e-19
1.71143e-19
1.67052e-19
2.2719e-19
2.81174e-19
3.77799e-19
1.54097e-19
1.6281e-19
1.81464e-19
1.52153e-19
1.69837e-19
1.16786e-19
1.99374e-19
3.10901e-19
2.03864e-19
1.64809e-19
2.50251e-19
1.48706e-19
2.21799e-19
1.57962e-19
1.27783e-19
2.05533e-19
1.89239e-19
1.68645e-19
1.54889e-19
1.86474e-19
1.85378e-19
1.79624e-19
1.79793e-19
2.41716e-19
1.85299e-19
2.34542e-19
3.55331e-19
1.87881e-19
2.38002e-19
1.77448e-19
2.75291e-19
2.62599e-19
3.17263e-19
1.2463e-19
2.48108e-19
2.02703e-19
2.46265e-19
2.59178e-19
2.0641e-19
2.57184e-19
1.71263e-19
1.70842e-19
2.91112e-19
1.82235e-19
1.96144e-19
1.69624e-19
1.07979e-19
1.65235e-19
2.50747e-19
2.48372e-19
2.42597e-19
2.38815e-19
2.58123e-19
2.06199e-19
2.0265e-19
1.92631e-19
2.78016e-19
1.70063e-19
1.32855e-19
1.41216e-19
1.76492e-19
2.64607e-19
3.06027e-19
2.64156e-19
2.70975e-19
3.42813e-19
2.24799e-19
1.84862e-19
2.6469e-19
1.60111e-19
2.20303e-19
1.63242e-19
2.90151e-19
1.99286e-19
2.92382e-19
1.6527e-19
2.71411e-19
1.96682e-19
2.10392e-19
1.86792e-19
2.58332e-19
2.0914e-19
1.63893e-19
1.36762e-19
2.41191e-19
2.34026e-19
1.33353e-19
2.30866e-19
1.93683e-19
2.79004e-19
1.6019e-19
2.13104e-19
1.48848e-19
1.89278e-19
2.96466e-19
1.5173e-19
1.90501e-19
2.1152e-19
2.0838e-19
1.73934e-19
1.38399e-19
1.52645e-19
1.84481e-19
2.75664e-19
1.92575e-19
1.83929e-19
2.00815e-19
2.59496e-19
1.41752e-19
2.01288e-19
1.68092e-19
2.61345e-19
2.77895e-19
1.13949e-19
1.91279e-19
2.51907e-19
2.49921e-19
2.57705e-19
1.163e-19
1.94851e-19
1.29077e-19
1.90258e-19
1.87082e-19
1.84711e-19
1.43754e-19
1.69497e-19
1.96452e-19
1.95355e-19
2.44611e-19
1.491e-19
1.71388e-19
1.54728e-19
2.41961e-19
2.71913e-19
1.87209e-19
2.63099e-19
2.05971e-19
2.91227e-19
2.00239e-19
1.89989e-19
1.36814e-19
2.88017e-19
2.11331e-19
2.86442e-19
2.10275e-19
2.16598e-19
2.69544e-19
1.84528e-19
1.87215e-19
2.50428e-19
2.25942e-19
1.0801e-19
1.61784e-19
2.08477e-19
1.06499e-19
2.01811e-19
2.63449e-19
2.08223e-19
1.93717e-19
2.49563e-19
1.54046e-19
1.8425e-19
2.26949e-19
2.19033e-19
1.73782e-19
2.09321e-19
1.53014e-19
2.21151e-19
2.64293e-19
3.07188e-19
1.59264e-19
1.97526e-19
1.72101e-19
1.75856e-19
2.00622e-19
1.1687e-19
2.20179e-19
1.96255e-19
2.08161e-19
1.7697e-19
2.78099e-19
1.93406e-19
2.30422e-19
1.69142e-19
3.84237e-19
2.24588e-19
2.9362e-19
4.25375e-19
3.30313e-19
4.80524e-19
3.46846e-19
2.51174e-19
3.3328e-19
3.23758e-19
2.31411e-19
4.13097e-19
4.37124e-19
3.66473e-19
4.52721e-19
3.97904e-19
4.33748e-19
4.19922e-19
4.1751e-19
3.3638e-19
5.36946e-19
3.54659e-19
3.50488e-19
3.38519e-19
4.41261e-19
3.12939e-19
3.77333e-19
4.65273e-19
3.22089e-19
4.31454e-19
2.73667e-19
2.10376e-19
3.14376e-19
2.36003e-19
4.22042e-19
4.211e-19
3.8962e-19
3.92739e-19
3.92078e-19
3.42956e-19
3.70841e-19
3.95497e-19
2.67288e-19
2.7652e-19
3.88568e-19
2.43227e-19
4.25593e-19
4.51548e-19
5.89897e-19
4.03898e-19
5.03952e-19
2.72952e-19
4.48681e-19
4.31458e-19
3.85232e-19
4.72997e-19
4.85671e-19
3.7212e-19
3.94535e-19
1.97607e-19
2.22846e-19
3.51468e-19
2.41002e-19
3.82869e-19
3.3438e-19
3.48766e-19
3.73047e-19
4.29389e-19
3.0527e-19
6.11933e-19
5.94308e-19
4.71019e-19
3.23473e-19
4.13961e-19
4.96134e-19
2.78932e-19
2.9611e-19
3.446e-19
4.529e-19
5.28364e-19
3.79064e-19
3.51894e-19
2.80468e-19
3.26156e-19
2.86079e-19
3.32728e-19
2.50251e-19
2.55766e-19
3.61391e-19
3.58455e-19
5.66142e-19
4.82295e-19
2.51973e-19
5.44952e-19
2.51579e-19
3.28883e-19
2.00427e-19
3.82379e-19
3.61936e-19
3.04395e-19
4.1592e-19
3.4399e-19
4.15493e-19
5.06505e-19
4.75605e-19
2.88512e-19
5.13844e-19
3.25799e-19
3.13625e-19
3.64353e-19
4.02224e-19
4.69659e-19
4.07204e-19
3.19156e-19
5.26528e-19
4.37744e-19
4.30365e-19
3.24734e-19
3.9469e-19
2.73584e-19
3.85732e-19
3.11427e-19
3.7482e-19
3.43523e-19
4.25306e-19
4.70409e-19
4.22586e-19
3.23286e-19
3.7781e-19
4.93513e-19
3.72704e-19
3.7843e-19
5.36392e-19
6.76069e-19
4.89191e-19
5.52676e-19
3.33009e-19
3.83064e-19
4.2937e-19
2.93144e-19
4.65393e-19
2.70968e-19
3.30178e-19
4.55915e-19
4.65493e-19
3.9421e-19
5.01145e-19
5.07497e-19
3.5289e-19
3.51405e-19
3.58451e-19
3.08101e-19
3.14334e-19
2.89443e-19
3.78384e-19
3.71775e-19
4.89356e-19
3.06517e-19
3.87541e-19
2.70517e-19
4.96525e-19
3.2636e-19
2.11762e-19
4.30208e-19
2.41638e-19
2.7292e-19
5.41343e-19
3.83891e-19
2.64012e-19
3.6151e-19
4.41043e-19
2.44519e-19
1.78119e-19
3.37144e-19
2.06856e-19
3.56281e-19
4.42148e-19
4.38038e-19
2.15202e-19
4.23691e-19
2.84357e-19
3.43313e-19
2.57863e-19
4.29335e-19
2.71768e-19
4.08849e-19
2.51196e-19
2.98819e-19
4.77236e-19
4.85369e-19
3.64772e-19
2.45077e-19
2.57933e-19
2.35117e-19
4.532e-19
3.90725e-19
3.87311e-19
3.18995e-19
4.96699e-19
4.37328e-19
6.11486e-19
3.34844e-19
3.79131e-19
2.25677e-19
4.35111e-19
3.02406e-19
4.35311e-19
2.77581e-19
4.36078e-19
4.38558e-19
2.8508e-19
3.2771e-19
4.63847e-19
2.82932e-19
4.36731e-19
3.6835e-19
4.41811e-19
2.66939e-19
3.95915e-19
5.13699e-19
4.13564e-19
3.85082e-19
4.69482e-19
4.02091e-19
3.37571e-19
2.82866e-19
3.13718e-19
4.63733e-19
3.26651e-19
3.26157e-19
2.68648e-19
5.8014e-19
5.09354e-19
4.5096e-19
5.12759e-19
4.03418e-19
2.25082e-19
3.29704e-19
3.65877e-19
3.68607e-19
2.6871e-19
4.37904e-19
3.90902e-19
3.90438e-19
3.64818e-19
2.99651e-19
2.78505e-19
3.53237e-19
3.46099e-19
3.44289e-19
2.42265e-19
4.37599e-19
3.98278e-19
2.06985e-19
3.86556e-19
2.98221e-19
5.23926e-19
5.6415e-19
2.75822e-19
4.9014e-19
7.98517e-19
5.09097e-19
6.09567e-19
5.36059e-19
6.06972e-19
6.98139e-19
8.90142e-19
7.81945e-19
9.21919e-19
9.84766e-19
8.83716e-19
9.43221e-19
9.23449e-19
3.54431e-19
6.91105e-19
3.67368e-19
7.07784e-19
8.1361e-19
6.5197e-19
4.52018e-19
6.1078e-19
8.50881e-19
8.94728e-19
3.19837e-19
6.01722e-19
7.92863e-19
5.80684e-19
8.2585e-19
7.04543e-19
3.79289e-19
5.47999e-19
5.62263e-19
6.68268e-19
6.76878e-19
5.09667e-19
5.7946e-19
5.03276e-19
5.07927e-19
1.08897e-18
4.4981e-19
5.04646e-19
8.04276e-19
6.65931e-19
6.47481e-19
9.44208e-19
6.33975e-19
7.18029e-19
7.41743e-19
6.55513e-19
5.20476e-19
6.41932e-19
7.06409e-19
4.89754e-19
7.6671e-19
5.323e-19
6.70228e-19
4.61177e-19
3.86603e-19
4.44715e-19
5.68613e-19
6.05708e-19
6.67758e-19
5.56578e-19
8.56474e-19
5.76329e-19
9.94074e-19
6.98639e-19
6.18571e-19
5.53466e-19
7.41464e-19
5.62129e-19
5.24867e-19
7.03729e-19
5.00093e-19
6.03666e-19
7.60629e-19
4.72021e-19
3.95094e-19
6.38516e-19
4.77144e-19
7.37197e-19
3.90585e-19
8.49158e-19
7.93813e-19
6.12901e-19
5.05308e-19
9.15365e-19
1.17028e-18
6.16103e-19
6.72911e-19
5.37044e-19
4.94093e-19
3.58543e-19
8.11866e-19
5.36849e-19
7.50819e-19
5.7046e-19
4.21496e-19
7.32132e-19
7.44037e-19
5.30944e-19
5.55618e-19
5.44155e-19
9.29105e-19
5.29623e-19
4.968e-19
7.68184e-19
7.26013e-19
7.1201e-19
1.00262e-18
6.42204e-19
5.62898e-19
8.25567e-19
8.08744e-19
9.41018e-19
3.4761e-19
7.73317e-19
7.72575e-19
3.47239e-19
5.87394e-19
7.58537e-19
6.42855e-19
7.50627e-19
7.65058e-19
8.83706e-19
4.55048e-19
8.16366e-19
7.01489e-19
6.33079e-19
8.16762e-19
4.24988e-19
5.17633e-19
8.19706e-19
7.09796e-19
8.2578e-19
9.379e-19
8.87004e-19
3.92661e-19
6.99233e-19
8.45335e-19
6.29678e-19
6.05819e-19
6.50557e-19
4.79612e-19
4.89647e-19
6.01543e-19
4.83693e-19
3.2286e-19
5.58999e-19
6.34247e-19
5.28517e-19
7.34796e-19
5.7733e-19
7.30565e-19
7.80565e-19
4.1248e-19
4.21196e-19
5.12971e-19
5.34589e-19
9.23788e-19
4.33033e-19
5.03103e-19
7.12467e-19
6.70867e-19
6.59494e-19
5.39232e-19
8.45087e-19
3.77028e-19
6.92038e-19
4.44106e-19
7.96994e-19
6.72315e-19
7.46873e-19
5.89302e-19
6.53145e-19
9.36717e-19
1.01127e-18
8.33842e-19
6.95546e-19
6.14027e-19
4.92276e-19
4.68142e-19
5.04099e-19
4.81132e-19
6.71867e-19
4.42512e-19
8.26554e-19
1e-18
4.33315e-19
5.69574e-19
7.03552e-19
9.28193e-19
5.45516e-19
9.80522e-19
7.52502e-19
8.84101e-19
5.31633e-19
9.42573e-19
5.97005e-19
6.96126e-19
2.90698e-19
7.00172e-19
7.97717e-19
1.0417e-18
3.84388e-19
4.96662e-19
4.71943e-19
7.58572e-19
5.10736e-19
4.95463e-19
4.82541e-19
8.43202e-19
8.66093e-19
4.90979e-19
6.70758e-19
6.64577e-19
8.84623e-19
6.74416e-19
7.00711e-19
6.7018e-19
7.0729e-19
6.97468e-19
7.69049e-19
5.21344e-19
7.33757e-19
7.93968e-19
7.25106e-19
1.10473e-18
4.96738e-19
5.24856e-19
7.56032e-19
8.4537e-19
4.76796e-19
7.67388e-19
8.06836e-19
6.59317e-19
5.79494e-19
8.84531e-19
5.86753e-19
7.19776e-19
8.10812e-19
4.27574e-19
5.53438e-19
6.51191e-19
6.08015e-19
4.67755e-19
6.15353e-19
5.13429e-19
6.13588e-19
3.45293e-19
7.35566e-19
5.49632e-19
1.65261e-18
1.37794e-18
8.54215e-19
1.16318e-18
1.56884e-18
1.4495e-18
1.04729e-18
1.01776e-18
1.45886e-18
6.94258e-19
1.46347e-18
7.74419e-19
1.4228e-18
1.18057e-18
8.42727e-19
1.24668e-18
1.66063e-18
1.56264e-18
1.59281e-18
1.21761e-18
9.67986e-19
1.16964e-18
9.29205e-19
1.106e-18
1.68053e-18
8.39985e-19
1.01631e-18
1.20498e-18
9.44848e-19
1.16879e-18
1.35985e-18
1.27746e-18
1.34599e-18
1.04852e-18
8.72477e-19
1.17938e-18
1.73184e-18
1.01361e-18
1.58517e-18
1.38257e-18
7.50183e-19
1.38358e-18
1.21621e-18
6.52935e-19
7.85867e-19
1.07394e-18
1.24149e-18
1.27693e-18
1.17732e-18
1.32299e-18
1.41912e-18
9.14282e-19
1.01718e-18
1.05089e-18
1.15189e-18
1.17417e-18
5.90206e-19
1.29504e-18
1.02578e-18
1.50966e-18
1.36166e-18
1.22827e-18
7.43619e-19
8.1349e-19
1.48518e-18
7.35273e-19
7.57161e-19
1.09671e-18
9.98823e-19
9.65909e-19
1.15876e-18
1.73831e-18
8.63145e-19
7.98947e-19
1.10337e-18
9.4304e-19
1.4105e-18
1.11899e-18
1.23883e-18
1.09708e-18
9.55619e-19
1.01665e-18
1.08461e-18
1.04125e-18
6.43919e-19
1.00664e-18
1.51857e-18
1.34776e-18
1.47866e-18
1.19399e-18
1.2995e-18
1.07976e-18
1.4729e-18
1.00947e-18
1.16554e-18
1.50197e-18
6.43201e-19
1.64558e-18
1.42006e-18
1.44724e-18
1.33168e-18
1.24551e-18
1.95373e-18
1.13767e-18
1.19931e-18
1.27427e-18
1.40927e-18
1.22474e-18
7.76758e-19
1.21955e-18
1.46726e-18
1.45136e-18
1.66825e-18
1.47028e-18
1.19898e-18
1.17827e-18
1.28322e-18
1.41311e-18
1.11544e-18
1.21516e-18
1.2607e-18
1.38184e-18
1.79161e-18
8.74642e-19
1.8068e-18
9.07546e-19
1.10943e-18
1.01022e-18
1.31521e-18
9.51082e-19
1.79064e-18
1.54363e-18
1.50015e-18
1.70669e-18
1.49334e-18
1.40393e-18
1.68691e-18
1.39768e-18
1.24554e-18
7.87647e-19
9.52698e-19
9.89988e-19
1.07889e-18
1.02445e-18
1.224e-18
1.43444e-18
1.61652e-18
1.57464e-18
1.06372e-18
1.43613e-18
1.03948e-18
1.47063e-18
1.09511e-18
1.0896e-18
8.23012e-19
1.30078e-18
1.43593e-18
1.22268e-18
1.36665e-18
1.45502e-18
1.44061e-18
6.67238e-19
7.88088e-19
9.42858e-19
1.44428e-18
1.59436e-18
1.28877e-18
1.22936e-18
8.47955e-19
8.90107e-19
1.2317e-18
1.53819e-18
1.09372e-18
1.65668e-18
1.1401e-18
1.51464e-18
2.15702e-18
1.3424e-18
1.10972e-18
1.22599e-18
1.25006e-18
1.65431e-18
1.02919e-18
1.12253e-18
1.32343e-18
7.00673e-19
9.45028e-19
1.29862e-18
9.20809e-19
1.43023e-18
1.45077e-18
1.39621e-18
1.04196e-18
8.15266e-19
1.4173e-18
1.57251e-18
1.86714e-18
1.10668e-18
1.06823e-18
1.59582e-18
1.09143e-18
1.59555e-18
1.05165e-18
7.97513e-19
1.72804e-18
1.09792e-18
1.64055e-18
1.47032e-18
1.12275e-18
8.99153e-19
1.05598e-18
1.26271e-18
1.30677e-18
1.15775e-18
8.04697e-19
1.58633e-18
1.86369e-18
1.24668e-18
1.15122e-18
1.19295e-18
1.91292e-18
1.46165e-18
8.76931e-19
1.23752e-18
1.09318e-18
9.82837e-19
1.5516e-18
1.12853e-18
1.33375e-18
1.49611e-18
1.29663e-18
1.28948e-18
1.35257e-18
1.15967e-18
1.05954e-18
1.40493e-18
1.19192e-18
1.47913e-18
1.11297e-18
1.35998e-18
1.41514e-18
8.14445e-19
7.33519e-19
2.30235e-18
9.63771e-19
1.0714e-18
8.25087e-19
1.02513e-18
6.45658e-19
8.74525e-19
1.25385e-18
1.3183e-18
8.1146e-19
1.30063e-18
1.67723e-18
1.08116e-18
3.0352e-18
1.87277e-18
2.68594e-18
2.59164e-18
2.43262e-18
2.67668e-18
2.56083e-18
2.5914e-18
2.00146e-18
1.46833e-18
2.12671e-18
1.70876e-18
1.92013e-18
1.99614e-18
3.89834e-18
1.7237e-18
3.09342e-18
2.01419e-18
2.11359e-18
2.46256e-18
2.38078e-18
2.54187e-18
1.75772e-18
2.3968e-18
2.41669e-18
2.83883e-18
2.30227e-18
2.69893e-18
2.21517e-18
1.68702e-18
2.86766e-18
2.49026e-18
1.35382e-18
1.66308e-18
1.92624e-18
2.49936e-18
2.30852e-18
3.06763e-18
1.76432e-18
2.08585e-18
2.31612e-18
1.98505e-18
2.69698e-18
1.69044e-18
2.01139e-18
2.29517e-18
1.41197e-18
1.44727e-18
1.63024e-18
1.61033e-18
1.9005e-18
2.44711e-18
1.78335e-18
2.2935e-18
2.22666e-18
1.64973e-18
2.07845e-18
2.12176e-18
1.08806e-18
3.33228e-18
2.39887e-18
1.87529e-18
2.25098e-18
1.98668e-18
3.06042e-18
2.66085e-18
1.93589e-18
2.83879e-18
2.90616e-18
2.21769e-18
2.65606e-18
2.35846e-18
2.26937e-18
1.71191e-18
2.3346e-18
1.11149e-18
1.2918e-18
2.25929e-18
2.68406e-18
1.92097e-18
1.85042e-18
3.22799e-18
1.79206e-18
2.06593e-18
2.26254e-18
1.72664e-18
2.00328e-18
1.71192e-18
1.64812e-18
2.46787e-18
3.38533e-18
2.32344e-18
2.3892e-18
2.28172e-18
1.77816e-18
1.9416e-18
9.76611e-19
2.45077e-18
1.56204e-18
1.42632e-18
2.0395e-18
2.46418e-18
2.97308e-18
2.20483e-18
1.83816e-18
1.62607e-18
2.04585e-18
1.02231e-18
1.72617e-18
2.25447e-18
2.71072e-18
2.16979e-18
4.08811e-18
2.35993e-18
1.56632e-18
2.53674e-18
1.78657e-18
2.68465e-18
1.55203e-18
2.41076e-18
2.45165e-18
2.3977e-18
2.76548e-18
2.22283e-18
2.07801e-18
2.07352e-18
2.42192e-18
1.94888e-18
2.35579e-18
1.92509e-18
3.10474e-18
2.55869e-18
2.23707e-18
3.17774e-18
3.45721e-18
1.99903e-18
2.32619e-18
1.39858e-18
1.93931e-18
2.24952e-18
1.98561e-18
2.24175e-18
2.38666e-18
2.64711e-18
1.88785e-18
3.42914e-18
2.15969e-18
2.20126e-18
1.64608e-18
2.20674e-18
1.78895e-18
1.44249e-18
1.69913e-18
2.80581e-18
2.35925e-18
2.17051e-18
1.22877e-18
1.62147e-18
2.32137e-18
3.01395e-18
2.61704e-18
1.87468e-18
1.226e-18
2.18022e-18
2.33006e-18
2.54704e-18
1.79932e-18
2.29931e-18
1.45145e-18
2.38815e-18
2.6241e-18
3.62711e-18
2.77002e-18
1.85672e-18
2.51445e-18
2.57172e-18
2.7474e-18
2.74028e-18
1.92967e-18
1.91743e-18
2.03857e-18
2.87519e-18
1.96272e-18
1.60291e-18
1.90832e-18
1.46893e-18
2.62935e-18
1.3952e-18
2.86803e-18
1.75728e-18
1.91374e-18
2.20306e-18
1.62081e-18
1.79472e-18
1.92493e-18
2.66838e-18
1.74946e-18
2.59508e-18
1.74142e-18
1.12158e-18
2.08314e-18
1.8343e-18
2.7754e-18
1.57177e-18
2.17446e-18
1.41339e-18
1.39987e-18
2.64483e-18
1.86993e-18
2.54682e-18
1.7108e-18
2.45837e-18
1.74949e-18
2.53395e-18
3.01591e-18
2.37618e-18
2.01016e-18
1.90085e-18
1.5008e-18
2.78235e-18
2.70677e-18
2.58182e-18
2.25562e-18
1.48998e-18
2.61192e-18
1.6306e-18
1.78549e-18
2.41326e-18
1.92409e-18
2.97532e-18
1.24566e-18
1.50312e-18
2.24624e-18
2.329e-18
2.39646e-18
1.97484e-18
2.76754e-18
1.90322e-18
3.09743e-18
2.02912e-18
1.75283e-18
2.33278e-18
2.0932e-18
2.42865e-18
2.70002e-18
2.47871e-18
3.64217e-18
2.20751e-18
1.9941e-18
2.17966e-18
2.38153e-18
2.49964e-18
2.72742e-18
2.99362e-18
1.80087e-18
1.11214e-18
1.89976e-18
2.86633e-18
3.76538e-18
5.4647e-18
2.97648e-18
3.38805e-18
4.44555e-18
5.03855e-18
3.634e-18
3.6495e-18
2.79726e-18
4.19903e-18
2.39661e-18
4.36049e-18
3.01174e-18
3.63586e-18
5.74796e-18
5.5091e-18
3.76821e-18
3.81157e-18
3.92743e-18
4.55757e-18
3.32804e-18
2.92271e-18
4.06864e-18
2.55853e-18
2.47301e-18
5.88807e-18
5.45693e-18
6.08625e-18
3.22388e-18
3.5977e-18
3.67658e-18
2.58785e-18
2.9846e-18
4.60088e-18
3.53975e-18
4.41194e-18
4.01794e-18
3.62149e-18
4.93761e-18
4.42533e-18
4.94152e-18
4.20923e-18
3.15297e-18
3.62542e-18
4.03638e-18
3.91081e-18
4.88442e-18
3.61489e-18
4.28191e-18
3.23146e-18
6.85221e-18
4.33448e-18
3.21284e-18
5.68206e-18
5.52352e-18
4.3056e-18
2.85549e-18
2.49952e-18
4.67698e-18
5.65418e-18
3.89874e-18
4.17058e-18
3.42274e-18
3.32912e-18
5.9696e-18
5.77635e-18
3.78743e-18
6.75446e-18
3.15444e-18
4.25563e-18
2.91884e-18
3.26242e-18
5.98869e-18
5.67434e-18
4.45762e-18
1.87738e-18
3.94242e-18
4.41806e-18
5.30929e-18
4.72856e-18
4.39167e-18
4.82125e-18
4.42293e-18
5.14937e-18
5.57368e-18
6.31636e-18
5.75861e-18
4.94535e-18
3.57732e-18
5.15677e-18
4.97505e-18
4.54048e-18
4.95258e-18
3.03213e-18
2.4752e-18
5.14944e-18
4.58788e-18
6.68124e-18
4.53425e-18
6.39215e-18
6.63189e-18
4.43738e-18
4.02877e-18
3.29064e-18
4.72632e-18
6.49063e-18
6.77742e-18
4.86114e-18
5.6194e-18
3.668e-18
5.11977e-18
5.37238e-18
5.18751e-18
3.9248e-18
3.52049e-18
5.3123e-18
4.3794e-18
4.63819e-18
4.4475e-18
3.34779e-18
3.50586e-18
4.12626e-18
5.25118e-18
5.51075e-18
4.38295e-18
3.55985e-18
1.74038e-18
3.14134e-18
4.39343e-18
4.09309e-18
4.23108e-18
4.46298e-18
5.07721e-18
5.25679e-18
5.83174e-18
4.75719e-18
4.43471e-18
5.19665e-18
2.90519e-18
5.38261e-18
4.16937e-18
3.57254e-18
6.24894e-18
4.41518e-18
4.53442e-18
5.06586e-18
5.52452e-18
4.67623e-18
3.67983e-18
6.09635e-18
5.62431e-18
3.74958e-18
4.79933e-18
4.97637e-18
3.7906e-18
3.7065e-18
4.30487e-18
3.30481e-18
5.84102e-18
5.43963e-18
4.83159e-18
5.92015e-18
5.4441e-18
4.3638e-18
4.45042e-18
3.56154e-18
3.25086e-18
4.41984e-18
3.77198e-18
2.65528e-18
4.55728e-18
4.87649e-18
5.1339e-18
5.64931e-18
3.65799e-18
3.25042e-18
5.47572e-18
3.75708e-18
5.22505e-18
2.39957e-18
4.71049e-18
2.55587e-18
2.92233e-18
3.04965e-18
4.30573e-18
2.04251e-18
4.62483e-18
5.1746e-18
4.3788e-18
6.17436e-18
4.61173e-18
4.44954e-18
5.77653e-18
4.08865e-18
4.82357e-18
3.92887e-18
3.73802e-18
3.77345e-18
5.10429e-18
3.07904e-18
3.28607e-18
3.7607e-18
3.53948e-18
4.00634e-18
5.01067e-18
4.58765e-18
6.36496e-18
3.73564e-18
4.12218e-18
3.0545e-18
3.81877e-18
4.52711e-18
3.6281e-18
4.47908e-18
5.27613e-18
6.06466e-18
3.7294e-18
4.28477e-18
4.31135e-18
4.49991e-18
5.83057e-18
4.87094e-18
3.65877e-18
6.09469e-18
4.37272e-18
4.57503e-18
3.9991e-18
5.15997e-18
4.82602e-18
3.28852e-18
4.96621e-18
2.77828e-18
3.31442e-18
2.42818e-18
3.34078e-18
4.22211e-18
5.18975e-18
4.34584e-18
6.75787e-18
2.55259e-18
2.88453e-18
4.25247e-18
4.40176e-18
3.85388e-18
5.23323e-18
3.59841e-18
2.46061e-18
4.36204e-18
2.73044e-18
4.37843e-18
4.67944e-18
3.82334e-18
3.64529e-18
2.94154e-18
7.22785e-18
8.98712e-18
6.54073e-18
8.5904e-18
7.26891e-18
6.64629e-18
7.88469e-18
1.03479e-17
6.15434e-18
9.69275e-18
8.8422e-18
8.3479e-18
7.37086e-18
7.28299e-18
8.13128e-18
9.1432e-18
6.73215e-18
5.22454e-18
6.66545e-18
7.98362e-18
4.88704e-18
7.65218e-18
7.41646e-18
6.89983e-18
8.70252e-18
5.02406e-18
6.13759e-18
8.3695e-18
8.63951e-18
9.33374e-18
5.52327e-18
3.71781e-18
8.58951e-18
4.56209e-18
4.67518e-18
1.05875e-17
8.38261e-18
9.06329e-18
8.71264e-18
5.95455e-18
7.10877e-18
7.71955e-18
7.79568e-18
4.67886e-18
5.30309e-18
9.44134e-18
1.10128e-17
6.96318e-18
7.67773e-18
8.75055e-18
7.88698e-18
7.75608e-18
3.96598e-18
8.41378e-18
6.62916e-18
3.09648e-18
6.2344e-18
7.18103e-18
8.23369e-18
7.88742e-18
6.28208e-18
5.85647e-18
6.79371e-18
7.45449e-18
5.94316e-18
5.83769e-18
5.96599e-18
5.69078e-18
7.67129e-18
4.88293e-18
8.62887e-18
6.77895e-18
1.03022e-17
1.04279e-17
8.75388e-18
8.30233e-18
7.77506e-18
1.03862e-17
5.21492e-18
8.14673e-18
1.03298e-17
9.63085e-18
9.21382e-18
9.6179e-18
5.51395e-18
4.88382e-18
9.87706e-18
7.84883e-18
6.08233e-18
6.6878e-18
1.05964e-17
8.78719e-18
4.84626e-18
6.98346e-18
6.56164e-18
5.77133e-18
7.14629e-18
8.21567e-18
7.27425e-18
1.05103e-17
8.91544e-18
4.94078e-18
1.04726e-17
6.87688e-18
6.10464e-18
8.87814e-18
8.36004e-18
3.40127e-18
6.50621e-18
1.13364e-17
9.38597e-18
6.24089e-18
6.83018e-18
9.26173e-18
8.83999e-18
5.45837e-18
5.28498e-18
5.30741e-18
8.90525e-18
3.94389e-18
3.64759e-18
6.36327e-18
8.66965e-18
8.89911e-18
5.62598e-18
6.078e-18
4.83565e-18
6.10695e-18
7.8785e-18
7.11746e-18
6.42866e-18
7.20498e-18
5.47721e-18
1.11285e-17
6.53109e-18
6.33897e-18
7.36308e-18
8.33889e-18
7.55488e-18
5.43308e-18
6.3794e-18
8.06829e-18
8.29906e-18
1.11018e-17
6.74478e-18
2.93707e-18
8.75086e-18
7.30494e-18
7.67913e-18
6.04726e-18
5.04694e-18
7.24465e-18
7.93806e-18
8.50973e-18
1.00719e-17
7.57134e-18
1.11071e-17
7.98014e-18
9.79506e-18
8.29928e-18
1.07597e-17
6.81921e-18
9.09425e-18
9.29245e-18
7.73438e-18
1.09738e-17
8.66638e-18
7.41665e-18
9.00503e-18
6.8748e-18
7.89055e-18
8.46035e-18
5.91836e-18
5.38281e-18
6.19856e-18
9.95505e-18
8.39958e-18
6.26378e-18
4.76393e-18
7.16369e-18
7.96501e-18
8.38948e-18
6.14743e-18
6.37598e-18
8.76808e-18
7.29049e-18
7.91297e-18
5.33702e-18
6.52163e-18
6.74874e-18
1.28939e-17
7.32971e-18
1.08533e-17
1.13089e-17
9.62975e-18
1.29226e-17
8.91745e-18
8.58906e-18
8.30081e-18
6.57559e-18
4.9531e-18
4.8613e-18
8.17681e-18
7.10334e-18
5.63129e-18
7.68111e-18
1.04836e-17
7.03058e-18
6.54051e-18
1.11017e-17
7.91809e-18
6.42036e-18
5.0172e-18
4.87228e-18
6.69749e-18
9.48636e-18
8.60202e-18
9.88188e-18
1.05627e-17
7.82549e-18
7.46008e-18
8.09404e-18
5.85827e-18
6.24687e-18
8.23232e-18
9.30834e-18
7.26655e-18
6.94818e-18
6.67868e-18
8.74689e-18
5.88081e-18
9.40309e-18
7.17427e-18
4.79561e-18
7.09715e-18
6.09679e-18
6.48777e-18
7.58254e-18
1.00453e-17
5.52876e-18
5.86315e-18
8.22395e-18
7.45856e-18
7.85332e-18
9.21695e-18
9.44862e-18
7.49666e-18
6.82268e-18
7.44724e-18
1.07757e-17
5.68816e-18
7.73795e-18
5.5073e-18
7.97916e-18
7.5774e-18
4.96365e-18
1.19931e-17
1.49548e-17
2.05445e-17
9.38023e-18
1.1808e-17
1.54782e-17
2.01187e-17
1.51956e-17
1.79569e-17
1.70556e-17
1.02455e-17
1.35189e-17
1.82165e-17
1.61502e-17
9.52802e-18
1.93909e-17
1.61396e-17
5.59772e-18
1.66587e-17
1.82928e-17
7.81628e-18
1.89299e-17
1.60004e-17
1.20167e-17
1.6855e-17
1.69919e-17
2.13145e-17
1.27904e-17
1.53479e-17
1.51622e-17
1.73972e-17
1.65882e-17
1.44296e-17
1.4276e-17
2.23151e-17
1.47203e-17
1.41643e-17
1.69863e-17
1.77606e-17
1.63284e-17
1.70542e-17
1.9282e-17
1.67003e-17
1.56594e-17
1.84084e-17
1.27262e-17
2.00913e-17
1.41265e-17
1.22722e-17
9.34184e-18
1.23132e-17
1.17489e-17
1.21492e-17
1.66355e-17
7.87507e-18
1.16831e-17
1.75259e-17
1.30926e-17
1.20786e-17
1.26691e-17
1.23545e-17
1.53796e-17
1.20109e-17
1.52003e-17
1.90144e-17
2.65937e-17
1.71244e-17
1.81565e-17
1.2338e-17
1.59421e-17
1.84285e-17
1.94668e-17
1.41624e-17
1.04152e-17
1.44142e-17
1.75976e-17
1.32388e-17
1.82199e-17
1.41319e-17
1.84085e-17
2.05982e-17
1.22873e-17
1.39782e-17
1.66938e-17
1.31111e-17
1.6519e-17
1.10887e-17
1.34744e-17
1.11999e-17
1.50491e-17
1.4846e-17
1.51701e-17
1.30533e-17
1.4917e-17
1.85993e-17
1.06658e-17
1.28495e-17
1.17918e-17
2.31502e-17
1.91905e-17
1.84788e-17
1.70178e-17
1.36823e-17
1.51085e-17
1.57274e-17
1.31359e-17
8.2314e-18
1.45227e-17
1.65588e-17
1.61499e-17
1.35138e-17
1.51362e-17
1.83433e-17
1.58726e-17
1.1195e-17
1.36462e-17
7.44109e-18
5.64939e-18
1.54092e-17
7.05049e-18
1.37321e-17
1.61483e-17
1.02651e-17
1.2163e-17
9.96383e-18
1.42962e-17
1.39662e-17
1.20687e-17
1.53239e-17
1.08461e-17
1.47335e-17
1.23813e-17
2.30171e-17
1.56841e-17
7.58833e-18
1.61107e-17
1.0691e-17
1.40195e-17
1.16153e-17
1.31525e-17
1.86682e-17
1.61475e-17
1.92972e-17
1.2817e-17
1.40657e-17
1.28139e-17
1.50051e-17
1.62304e-17
1.23266e-17
6.73272e-18
1.23823e-17
1.73351e-17
1.49807e-17
1.41584e-17
1.92869e-17
1.33419e-17
1.19396e-17
8.27468e-18
1.28537e-17
1.02364e-17
1.44686e-17
6.49984e-18
2.02493e-17
1.93573e-17
2.12975e-17
1.47433e-17
1.49959e-17
1.19655e-17
1.70353e-17
1.02646e-17
1.31432e-17
1.63423e-17
1.5139e-17
1.22639e-17
1.24623e-17
1.58693e-17
1.40766e-17
1.89849e-17
9.3848e-18
1.62984e-17
2.43334e-17
1.87555e-17
2.08034e-17
1.4196e-17
1.57268e-17
1.73153e-17
1.91589e-17
2.56427e-17
2.0204e-17
1.46759e-17
1.32342e-17
1.1783e-17
1.26776e-17
9.92008e-18
1.59615e-17
1.32066e-17
1.32666e-17
2.04421e-17
2.40439e-17
2.23603e-17