# vtk DataFile Version 1.0
Ion Density - Current Sheet
ASCII
DATASET STRUCTURED_POINTS
DIMENSIONS 256 128 1
ORIGIN 0 0 0
SPACING 0.15625 0.15625 1
POINT_DATA 32768
SCALARS rhoi float
LOOKUP_TABLE default
5.50651e-20
7.35738e-20
2.65644e-20
6.74851e-20
5.01194e-20
5.65529e-20
7.40722e-20
5.42643e-20
4.41099e-20
6.55115e-20
5.54416e-20
4.86945e-20
7.86187e-20
6.18827e-20
7.06641e-20
8.43609e-20
7.40739e-20
7.24864e-20
5.75711e-20
5.91488e-20
9.99033e-20
6.87872e-20
4.91487e-20
4.14805e-20
6.21332e-20
8.76348e-20
5.0867e-20
9.9703e-20
6.15565e-20
5.63053e-20
6.34029e-20
6.23671e-20
8.81645e-20
7.32895e-20
5.16502e-20
8.28116e-20
4.89725e-20
5.36767e-20
3.87457e-20
7.96597e-20
5.7298e-20
3.37051e-20
6.2076e-20
5.56049e-20
6.077e-20
5.9803e-20
4.77098e-20
5.01044e-20
4.9665e-20
7.04394e-20
7.99552e-20
4.25766e-20
8.93391e-20
1.17991e-19
6.14105e-20
8.83382e-20
4.77696e-20
6.17394e-20
8.36916e-20
8.68134e-20
1.01912e-19
8.14333e-20
7.67608e-20
7.3726e-20
3.69732e-20
5.93797e-20
8.48461e-20
5.85005e-20
8.55807e-20
2.75673e-20
7.92417e-20
8.16304e-20
5.50043e-20
7.86175e-20
2.61623e-20
2.79513e-20
4.02073e-20
5.968e-20
7.665e-20
3.96276e-20
6.57822e-20
6.0182e-20
9.29887e-20
6.87082e-20
8.9005e-20
6.43864e-20
5.84431e-20
1.00588e-19
9.35708e-20
8.98137e-20
5.36403e-20
5.13903e-20
7.35843e-20
4.90564e-20
9.82398e-20
1.09663e-19
7.67893e-20
9.41141e-20
6.90173e-20
6.05542e-20
3.25969e-20
6.11484e-20
5.10322e-20
7.84031e-20
5.124e-20
8.60735e-20
3.38583e-20
3.91786e-20
5.36746e-20
1.6883e-20
5.72861e-20
7.88531e-20
5.66281e-20
6.12377e-20
6.05135e-20
5.0712e-20
4.28822e-20
3.7506e-20
3.21143e-20
7.2514e-20
3.82171e-20
5.58739e-20
6.0329e-20
6.34437e-20
6.39451e-20
7.1882e-20
1.06423e-19
5.82383e-20
7.49955e-20
5.25924e-20
6.97831e-20
5.15603e-20
9.12508e-20
7.33257e-20
7.93675e-20
9.04105e-20
6.52521e-20
6.82246e-20
9.00018e-20
8.13748e-20
6.66168e-20
4.27266e-20
5.56992e-20
4.16311e-20
6.0797e-20
3.2996e-20
5.84256e-20
3.30832e-20
3.39507e-20
6.54225e-20
2.87109e-20
7.94361e-20
6.28822e-20
5.49393e-20
3.29601e-20
8.4404e-20
5.7698e-20
9.26977e-20
7.96423e-20
4.28227e-20
5.28396e-20
6.86809e-20
3.81905e-20
5.25373e-20
8.13477e-20
4.13596e-20
7.43783e-20
8.59495e-20
6.7899e-20
7.76057e-20
6.27338e-20
3.13139e-20
5.95326e-20
6.55744e-20
4.48757e-20
1.07883e-19
5.78118e-20
8.00992e-20
3.22614e-20
5.45341e-20
5.88393e-20
3.78582e-20
1.06706e-19
5.75742e-20
6.08574e-20
5.14853e-20
4.12066e-20
5.37712e-20
4.47234e-20
1.03643e-19
6.9266e-20
9.75344e-20
5.08844e-20
6.53568e-20
5.2246e-20
5.99508e-20
4.7129e-20
3.38275e-20
9.23034e-20
9.5294e-20
5.64735e-20
5.45411e-20
6.25728e-20
5.53765e-20
4.54072e-20
8.69603e-20
5.12359e-20
3.86253e-20
8.71255e-20
5.74165e-20
1.00081e-19
6.70627e-20
9.01549e-20
9.16491e-20
1.2343e-19
3.19589e-20
6.58804e-20
4.8832e-20
5.24371e-20
6.97934e-20
4.91943e-20
6.49558e-20
8.45271e-20
5.84581e-20
9.22011e-20
4.99618e-20
5.33471e-20
8.3288e-20
8.85215e-20
6.81695e-20
3.87111e-20
9.40249e-20
1.03832e-19
5.44669e-20
4.92637e-20
7.61176e-20
7.14132e-20
4.51934e-20
5.55037e-20
7.54571e-20
7.8414e-20
7.5579e-20
8.46474e-20
1.19552e-19
1.00481e-19
7.8055e-20
7.21811e-20
6.9418e-20
4.2817e-20
3.46808e-20
6.66416e-20
6.41895e-20
5.5238e-20
7.43366e-20
6.84113e-20
7.89332e-20
1.53032e-19
1.04878e-19
1.316e-19
8.05814e-20
9.48479e-20
1.18451e-19
1.30325e-19
1.5486e-19
1.53044e-19
1.44782e-19
7.14259e-20
1.04965e-19
1.51949e-19
8.63279e-20
9.82441e-20
9.60421e-20
1.5219e-19
7.06954e-20
1.56459e-19
9.89959e-20
8.93576e-20
1.41853e-19
7.82327e-20
1.47263e-19
9.81585e-20
9.56338e-20
9.78812e-20
1.25517e-19
1.28305e-19
1.53577e-19
1.04308e-19
7.18886e-20
1.05335e-19
1.14144e-19
1.58541e-19
1.10998e-19
1.20171e-19
7.89221e-20
1.65875e-19
1.37121e-19
9.69083e-20
8.05341e-20
9.96712e-20
1.48327e-19
1.32578e-19
1.39873e-19
8.48479e-20
8.61203e-20
6.95458e-20
1.72625e-19
1.06321e-19
1.24591e-19
1.20352e-19
1.88226e-19
8.74316e-20
1.39326e-19
1.32657e-19
7.58347e-20
7.3871e-20
6.91237e-20
1.2374e-19
7.71951e-20
1.15192e-19
1.41853e-19
7.75673e-20
1.28734e-19
1.19133e-19
1.07877e-19
1.14727e-19
1.35909e-19
1.24277e-19
1.1989e-19
1.29793e-19
1.17314e-19
1.12515e-19
1.07877e-19
1.02185e-19
1.45983e-19
1.40348e-19
1.71347e-19
1.58381e-19
1.22984e-19
6.20191e-20
1.19021e-19
1.06685e-19
1.39709e-19
1.65278e-19
8.68665e-20
1.19672e-19
8.71766e-20
9.85699e-20
1.58135e-19
1.26771e-19
1.31662e-19
1.03742e-19
1.09489e-19
1.34592e-19
1.02691e-19
1.481e-19
9.1762e-20
9.6037e-20
1.5335e-19
1.43776e-19
1.56558e-19
1.29323e-19
1.25142e-19
8.95943e-20
1.35526e-19
1.52272e-19
8.99297e-20
1.08428e-19
1.26815e-19
9.25413e-20
1.52107e-19
1.39111e-19
1.19641e-19
1.33964e-19
9.51416e-20
1.23485e-19
1.40136e-19
9.21808e-20
1.69225e-19
1.08861e-19
9.75422e-20
1.05394e-19
1.12882e-19
1.31231e-19
8.57427e-20
1.60288e-19
1.05175e-19
1.25445e-19
1.39346e-19
1.35838e-19
1.32555e-19
1.46852e-19
1.68182e-19
1.46891e-19
8.46761e-20
1.82271e-19
1.31953e-19
1.22293e-19
6.99775e-20
1.19913e-19
7.17262e-20
1.29407e-19
5.84445e-20
9.77537e-20
1.39329e-19
1.09612e-19
1.31536e-19
8.21153e-20
1.21561e-19
1.3292e-19
1.16556e-19
1.21485e-19
1.23467e-19
1.58087e-19
1.0413e-19
1.14171e-19
8.22335e-20
1.55923e-19
7.9506e-20
1.15164e-19
8.98149e-20
1.24091e-19
1.0703e-19
8.0943e-20
1.61163e-19
1.21519e-19
1.18018e-19
1.34147e-19
7.2268e-20
1.34346e-19
1.26584e-19
1.06082e-19
1.29969e-19
1.20754e-19
1.48457e-19
7.90092e-20
1.35686e-19
1.07848e-19
5.28858e-20
1.11861e-19
9.50122e-20
1.23513e-19
1.39529e-19
8.48846e-20
1.14387e-19
1.14393e-19
1.52595e-19
1.34231e-19
8.35342e-20
9.10132e-20
1.03993e-19
9.14803e-20
2.08053e-19
1.04244e-19
7.77982e-20
9.43925e-20
8.46289e-20
1.19221e-19
1.25953e-19
1.13929e-19
1.00301e-19
1.25678e-19
7.57719e-20
7.9045e-20
1.04399e-19
1.40512e-19
1.41768e-19
1.43343e-19
1.64306e-19
1.30839e-19
1.38622e-19
1.03828e-19
1.30302e-19
6.99831e-20
1.0246e-19
1.76125e-19
1.79317e-19
9.92562e-20
1.40646e-19
1.15095e-19
1.26049e-19
8.03449e-20
7.8391e-20
1.37237e-19
1.24418e-19
1.40758e-19
1.38e-19
1.30738e-19
1.14803e-19
1.24507e-19
1.54841e-19
1.5226e-19
1.20561e-19
6.42889e-20
6.74372e-20
1.03707e-19
1.39712e-19
1.14979e-19
1.20996e-19
1.43636e-19
1.48536e-19
9.49907e-20
9.91031e-20
7.08626e-20
8.89838e-20
1.53323e-19
1.04825e-19
1.68775e-19
1.20706e-19
1.58426e-19
1.46703e-19
1.27573e-19
1.37975e-19
2.92149e-19
1.64395e-19
2.38772e-19
2.51202e-19
2.2852e-19
1.82534e-19
1.91705e-19
1.9882e-19
1.68247e-19
2.21442e-19
1.32156e-19
2.24749e-19
2.3793e-19
2.67763e-19
1.91679e-19
1.66394e-19
1.66806e-19
2.86318e-19
2.73451e-19
1.91387e-19
3.03737e-19
2.71524e-19
1.62196e-19
1.82723e-19
1.894e-19
1.82714e-19
1.0063e-19
3.66224e-19
1.07736e-19
1.72184e-19
3.15265e-19
1.89722e-19
2.4554e-19
2.0353e-19
1.91232e-19
1.82123e-19
2.71237e-19
2.23317e-19
2.59226e-19
1.27316e-19
2.70463e-19
2.06171e-19
1.6856e-19
1.84853e-19
1.72982e-19
2.1985e-19
9.07074e-20
1.76943e-19
1.2799e-19
1.8215e-19
2.56154e-19
2.43544e-19
1.87406e-19
2.4469e-19
1.23355e-19
1.87586e-19
2.5194e-19
3.01351e-19
2.85938e-19
1.96694e-19
2.50924e-19
2.44401e-19
3.09034e-19
1.2228e-19
1.78099e-19
1.90062e-19
2.39123e-19
2.25688e-19
2.13009e-19
1.11875e-19
2.38143e-19
2.12179e-19
1.50952e-19
1.31155e-19
2.04418e-19
1.90502e-19
1.74693e-19
1.8579e-19
1.8302e-19
1.59557e-19
1.94221e-19
2.42975e-19
2.75676e-19
1.78337e-19
1.56033e-19
1.60538e-19
2.83228e-19
2.08395e-19
2.72348e-19
1.99166e-19
2.20941e-19
1.43953e-19
2.18316e-19
2.01024e-19
2.53857e-19
2.34772e-19
1.88305e-19
2.04908e-19
2.52342e-19
1.81448e-19
2.18403e-19
2.15132e-19
2.14168e-19
2.99598e-19
2.85961e-19
2.91534e-19
2.67376e-19
2.6966e-19
1.53998e-19
2.09867e-19
2.28312e-19
2.10776e-19
1.92505e-19
1.58167e-19
2.93801e-19
2.43117e-19
1.46702e-19
1.63738e-19
2.46428e-19
1.33797e-19
1.57937e-19
1.9266e-19
1.23271e-19
1.44552e-19
1.74e-19
1.61286e-19
1.48403e-19
2.74588e-19
2.84794e-19
7.42281e-20
1.77819e-19
1.37906e-19
1.17014e-19
1.59607e-19
2.98962e-19
2.86901e-19
1.6766e-19
1.70844e-19
2.60228e-19
2.04383e-19
2.35086e-19
1.51557e-19
1.14733e-19
1.98161e-19
2.77038e-19
2.07937e-19
2.03183e-19
2.38057e-19
1.78079e-19
1.92475e-19
1.9384e-19
1.61025e-19
1.92126e-19
2.23021e-19
1.54049e-19
2.0709e-19
2.89137e-19
2.06236e-19
2.19667e-19
1.56719e-19
1.74153e-19
1.78395e-19
1.3265e-19
1.43551e-19
1.49517e-19
2.47839e-19
2.07158e-19
2.05075e-19
2.32085e-19
2.4701e-19
1.24663e-19
1.65893e-19
1.28796e-19
1.74037e-19
1.46628e-19
2.21462e-19
1.94859e-19
1.91519e-19
1.15657e-19
2.66742e-19
1.27085e-19
2.18987e-19
2.38582e-19
2.66864e-19
3.00697e-19
2.06424e-19
2.04962e-19
2.39626e-19
1.8697e-19
2.23307e-19
1.94748e-19
2.52225e-19
1.39213e-19
2.46399e-19
1.96836e-19
1.39482e-19
2.15308e-19
1.63636e-19
1.63774e-19
2.47224e-19
1.55162e-19
1.78816e-19
1.71346e-19
1.13105e-19
2.07326e-19
1.33316e-19
1.82085e-19
2.10487e-19
2.21087e-19
2.10411e-19
2.49918e-19
1.96932e-19
2.77571e-19
2.55177e-19
2.02265e-19
1.47062e-19
1.95579e-19
2.35034e-19
2.92918e-19
2.75812e-19
8.59987e-20
3.10902e-19
1.92863e-19
1.90574e-19
6.48007e-20
1.97377e-19
2.41983e-19
2.09618e-19
2.17033e-19
2.20467e-19
2.19845e-19
2.06195e-19
2.11808e-19
2.42096e-19
1.18159e-19
1.77391e-19
1.66431e-19
2.04905e-19
3.39062e-19
3.19531e-19
2.15976e-19
2.46149e-19
2.10461e-19
1.81582e-19
1.27437e-19
2.02454e-19
2.22426e-19
1.51151e-19
1.96542e-19
1.34285e-19
1.56598e-19
1.64006e-19
1.82473e-19
2.54849e-19
2.07779e-19
1.53581e-19
3.28514e-19
2.35548e-19
4.07002e-19
3.41855e-19
2.56193e-19
3.65989e-19
1.87127e-19
2.67619e-19
4.13813e-19
3.25137e-19
4.48558e-19
4.58439e-19
6.92311e-19
3.55572e-19
3.34416e-19
2.59034e-19
4.56794e-19
4.69255e-19
4.08025e-19
4.3607e-19
5.1625e-19
3.6068e-19
3.69043e-19
2.7033e-19
4.04676e-19
2.76303e-19
4.84513e-19
4.2709e-19
6.57189e-19
3.53111e-19
3.44292e-19
3.40223e-19
2.04499e-19
2.71183e-19
4.75844e-19
3.38705e-19
4.91599e-19
5.95437e-19
3.97089e-19
4.88377e-19
4.13413e-19
3.50745e-19
2.91581e-19
4.02244e-19
3.2879e-19
3.44915e-19
4.71274e-19
3.88466e-19
3.80738e-19
4.56931e-19
4.97013e-19
4.06635e-19
4.30776e-19
4.44034e-19
3.9202e-19
5.35088e-19
4.87449e-19
4.78405e-19
2.84096e-19
3.62453e-19
4.05619e-19
4.07765e-19
4.44542e-19
3.00451e-19
3.65373e-19
2.95243e-19
4.05696e-19
5.00273e-19
2.67722e-19
3.88973e-19
3.66658e-19
6.10008e-19
2.67081e-19
3.61008e-19
4.75127e-19
2.87877e-19
3.39046e-19
3.11516e-19
4.14677e-19
3.33051e-19
2.41145e-19
5.30609e-19
3.72356e-19
2.24803e-19
3.73525e-19
4.11964e-19
5.63855e-19
4.38976e-19
4.8555e-19
4.9566e-19
4.48244e-19
3.6017e-19
5.28293e-19
6.05669e-19
3.34402e-19
3.36574e-19
4.09063e-19
4.95481e-19
2.7939e-19
2.75768e-19
4.53454e-19
2.14269e-19
3.44166e-19
4.85587e-19
2.92918e-19
4.30192e-19
2.64225e-19
3.02782e-19
2.82803e-19
4.44588e-19
2.6956e-19
2.37056e-19
4.82e-19
4.7007e-19
3.72964e-19
3.63705e-19
4.41288e-19
4.24416e-19
2.60387e-19
3.5005e-19
3.68839e-19
2.48955e-19
2.90664e-19
2.78554e-19
3.89264e-19
4.4718e-19
4.48238e-19
2.51329e-19
4.41322e-19
3.91109e-19
3.07401e-19
5.76475e-19
3.95001e-19
3.02921e-19
3.41574e-19
5.28004e-19
4.54192e-19
2.90147e-19
4.71294e-19
3.10351e-19
4.52571e-19
4.48442e-19
3.69702e-19
5.28954e-19
4.53386e-19
4.30942e-19
3.92416e-19
2.89726e-19
2.35548e-19
2.91268e-19
2.10895e-19
1.72306e-19
2.47081e-19
3.67785e-19
2.80276e-19
3.58465e-19
3.71153e-19
4.15322e-19
4.92765e-19
3.59858e-19
2.77082e-19
3.7605e-19
2.81935e-19
1.62326e-19
4.98412e-19
3.95783e-19
5.15439e-19
4.90332e-19
5.60314e-19
4.1938e-19
3.33423e-19
2.59119e-19
2.5155e-19
3.34213e-19
4.38374e-19
4.14277e-19
3.65419e-19
4.39305e-19
2.92284e-19
3.15272e-19
3.00345e-19
2.47316e-19
3.66506e-19
2.52228e-19
4.76985e-19
6.61374e-19
4.72405e-19
3.75517e-19
3.12851e-19
2.8635e-19
4.23654e-19
2.9523e-19
2.58567e-19
3.54465e-19
4.40848e-19
5.10949e-19
6.58314e-19
2.49434e-19
3.4181e-19
4.26465e-19
4.80506e-19
3.83403e-19
4.22909e-19
2.27027e-19
3.6925e-19
2.3465e-19
3.8963e-19
3.24718e-19
3.42575e-19
4.38739e-19
1.2542e-19
5.07582e-19
2.74739e-19
3.69276e-19
4.83825e-19
2.24645e-19
3.5264e-19
5.15153e-19
4.37757e-19
4.7466e-19
3.24998e-19
4.58507e-19
2.00889e-19
2.18752e-19
3.81935e-19
3.53167e-19
5.0493e-19
2.65249e-19
2.97583e-19
4.72709e-19
3.49722e-19
3.54824e-19
3.11918e-19
5.86087e-19
4.67953e-19
5.00842e-19
3.27959e-19
2.88211e-19
5.19833e-19
6.07739e-19
3.23757e-19
4.11377e-19
2.83647e-19
3.38075e-19
3.99908e-19
2.145e-19
3.65352e-19
3.78729e-19
4.35925e-19
2.15577e-19
3.80457e-19
3.58486e-19
2.91232e-19
3.22898e-19
3.92723e-19
3.2587e-19
7.09315e-19
7.48488e-19
3.9888e-19
4.08656e-19
1.04801e-18
6.58728e-19
6.15288e-19
6.46076e-19
7.1073e-19
7.59305e-19
8.44609e-19
7.98518e-19
8.64424e-19
8.0319e-19
5.82523e-19
1.09844e-18
5.75318e-19
4.4835e-19
8.58217e-19
3.35751e-19
6.37585e-19
6.23723e-19
9.46006e-19
5.16643e-19
4.04646e-19
6.21998e-19
4.59925e-19
5.63704e-19
6.04681e-19
6.25345e-19
8.21974e-19
1.18207e-18
4.98255e-19
8.72625e-19
4.77073e-19
8.70226e-19
7.77547e-19
5.16394e-19
7.59416e-19
5.51801e-19
5.83943e-19
5.23077e-19
4.7538e-19
7.10958e-19
6.29022e-19
6.42915e-19
6.10594e-19
6.42329e-19
6.90446e-19
5.03349e-19
5.14733e-19
7.13155e-19
7.88805e-19
6.68491e-19
6.55305e-19
6.90941e-19
9.09009e-19
9.72096e-19
6.82034e-19
5.63557e-19
7.99187e-19
8.24983e-19
8.64049e-19
6.49451e-19
9.24939e-19
8.85242e-19
5.61185e-19
9.87682e-19
6.05464e-19
6.40757e-19
4.88503e-19
8.1131e-19
9.16611e-19
7.9966e-19
7.56149e-19
6.66769e-19
7.25097e-19
4.7048e-19
5.66327e-19
8.55965e-19
6.69947e-19
5.73606e-19
6.88464e-19
7.9438e-19
6.48307e-19
5.53918e-19
5.04418e-19
7.57292e-19
8.94942e-19
7.74586e-19
4.16174e-19
6.87626e-19
9.07721e-19
6.33321e-19
8.70543e-19
6.02415e-19
5.45403e-19
6.95449e-19
6.85536e-19
6.8194e-19
4.92669e-19
6.96379e-19
8.94683e-19
8.67992e-19
5.44561e-19
7.79427e-19
8.28489e-19
7.88468e-19
3.96111e-19
5.6065e-19
7.84236e-19
7.47704e-19
6.75297e-19
4.95202e-19
3.13218e-19
6.67797e-19
8.0634e-19
6.79123e-19
5.54249e-19
5.67825e-19
6.74656e-19
5.28802e-19
6.23715e-19
8.87821e-19
7.31163e-19
8.83309e-19
8.74266e-19
5.41359e-19
5.30543e-19
9.88383e-19
7.85334e-19
7.11639e-19
7.24694e-19
6.08079e-19
7.77319e-19
8.06555e-19
5.9345e-19
8.916e-19
6.23501e-19
7.21491e-19
7.90733e-19
6.95038e-19
4.76737e-19
7.90235e-19
5.85579e-19
7.92214e-19
7.15593e-19
7.59512e-19
5.8487e-19
9.59566e-19
4.98235e-19
3.84645e-19
4.45674e-19
7.65513e-19
7.7132e-19
5.60352e-19
6.39979e-19
4.59993e-19
4.5944e-19
4.71269e-19
4.80789e-19
5.4642e-19
4.42585e-19
6.04225e-19
9.33285e-19
5.28681e-19
8.49986e-19
8.44314e-19
7.23606e-19
7.55038e-19
8.10694e-19
4.57803e-19
5.29215e-19
5.28074e-19
4.57399e-19
8.5418e-19
5.93909e-19
7.15171e-19
7.14485e-19
6.43469e-19
5.59691e-19
8.31332e-19
1.03171e-18
9.04095e-19
5.7964e-19
3.74509e-19
3.19627e-19
5.72856e-19
7.65528e-19
8.98717e-19
9.95405e-19
8.96795e-19
3.52658e-19
5.97818e-19
1.05696e-18
6.98556e-19
5.78626e-19
6.34296e-19
5.26216e-19
5.7316e-19
4.09455e-19
8.89575e-19
4.69082e-19
6.19769e-19
4.84209e-19
6.28991e-19
7.58853e-19
7.91593e-19
4.20944e-19
4.3881e-19
6.08074e-19
6.44534e-19
4.92358e-19
7.83258e-19
4.04788e-19
4.16707e-19
6.5568e-19
8.38612e-19
5.51569e-19
7.05212e-19
5.18008e-19
7.0564e-19
6.20291e-19
4.76879e-19
8.90205e-19
5.73531e-19
1.07718e-18
7.28908e-19
8.37983e-19
9.79284e-19
8.30582e-19
7.25718e-19
4.77039e-19
5.9863e-19
5.49685e-19
4.14559e-19
4.5623e-19
3.63784e-19
7.40335e-19
7.32169e-19
4.34213e-19
7.47181e-19
7.47448e-19
4.60697e-19
5.9363e-19
7.52414e-19
4.97597e-19
6.91409e-19
4.4868e-19
5.04492e-19
7.78089e-19
6.08949e-19
3.60958e-19
8.93591e-19
8.1225e-19
3.27841e-19
1.36927e-18
1.35679e-18
1.55204e-18
1.25059e-18
1.86883e-18
8.55126e-19
5.78007e-19
1.09185e-18
1.24479e-18
1.38355e-18
1.20706e-18
1.25114e-18
1.11431e-18
1.24634e-18
1.55436e-18
1.20145e-18
8.0438e-19
1.17736e-18
1.38425e-18
1.39903e-18
9.50633e-19
1.50494e-18
1.02088e-18
1.20058e-18
7.57481e-19
1.15671e-18
1.00494e-18
1.77207e-18
9.40537e-19
1.41821e-18
1.37621e-18
2.12749e-18
1.0297e-18
7.49983e-19
1.40889e-18
1.35252e-18
1.59169e-18
9.04709e-19
1.71835e-18
1.5443e-18
6.36741e-19
1.19621e-18
1.02794e-18
7.03703e-19
1.06165e-18
8.00275e-19
1.7621e-18
1.06967e-18
9.57589e-19
1.43883e-18
1.26056e-18
1.15963e-18
1.21766e-18
5.10511e-19
1.39296e-18
1.3336e-18
9.70646e-19
1.34257e-18
1.39752e-18
1.02531e-18
1.87981e-18
1.49962e-18
1.18749e-18
1.3133e-18
1.48668e-18
1.11669e-18
9.16625e-19
1.91702e-18
9.79661e-19
1.04425e-18
6.77687e-19
1.23556e-18
9.3542e-19
8.60838e-19
1.12631e-18
1.42872e-18
1.13948e-18
1.14789e-18
1.50087e-18
1.15884e-18
6.76995e-19
9.97063e-19
9.8692e-19
1.19863e-18
1.0992e-18
1.37149e-18
1.71197e-18
1.51283e-18
1.11794e-18
1.4819e-18
1.18559e-18
1.29309e-18
1.92349e-18
1.19023e-18
1.37606e-18
2.03759e-18
1.43869e-18
1.46231e-18
1.29983e-18
9.23769e-19
1.25323e-18
1.1228e-18
1.13521e-18
1.57115e-18
1.39806e-18
9.76615e-19
1.05044e-18
1.28465e-18
1.11186e-18
8.87757e-19
9.28273e-19
9.9005e-19
1.27794e-18
1.31497e-18
1.46928e-18
1.26877e-18
1.15522e-18
1.20875e-18
2.09064e-18
1.62319e-18
4.91924e-19
2.00375e-18
1.38047e-18
1.05615e-18
1.55559e-18
1.62233e-18
1.49896e-18
1.16714e-18
7.04013e-19
1.35466e-18
1.24263e-18
7.62935e-19
1.37934e-18
1.52573e-18
1.22187e-18
1.48959e-18
1.55491e-18
1.67572e-18
1.15187e-18
9.56774e-19
9.52159e-19
1.15653e-18
1.06555e-18
1.15111e-18
1.55581e-18
1.0284e-18
1.23767e-18
1.09882e-18
9.98335e-19
1.04343e-18
1.59183e-18
1.26206e-18
1.06222e-18
1.13915e-18
9.96232e-19
1.02628e-18
1.08885e-18
9.21483e-19
1.61148e-18
8.13134e-19
1.24605e-18
1.13556e-18
8.26629e-19
8.70291e-19
1.51815e-18
1.28345e-18
1.36685e-18
1.23976e-18
1.12987e-18
1.25183e-18
8.44591e-19
1.56615e-18
7.89797e-19
1.23131e-18
1.6513e-18
1.60026e-18
2.15346e-18
8.02684e-19
1.24761e-18
1.18692e-18
2.12691e-18
1.57751e-18
9.47879e-19
1.77051e-18
1.09325e-18
9.91563e-19
9.45808e-19
1.60362e-18
1.04887e-18
1.23413e-18
1.19635e-18
1.36877e-18
1.12884e-18
1.48623e-18
1.32233e-18
1.2252e-18
1.35208e-18
1.30965e-18
1.85764e-18
1.34078e-18
1.18945e-18
1.11473e-18
8.95482e-19
1.34421e-18
1.25745e-18
9.5256e-19
7.9896e-19
1.55494e-18
1.39922e-18
8.50156e-19
1.51311e-18
1.22466e-18
9.63732e-19
1.5321e-18
5.80365e-19
1.21105e-18
1.68042e-18
1.19458e-18
9.40791e-19
1.12741e-18
1.43436e-18
6.7859e-19
1.29497e-18
1.15295e-18
1.16802e-18
1.00066e-18
1.35467e-18
1.41257e-18
7.83332e-19
1.42851e-18
2.12778e-18
6.23693e-19
1.68855e-18
1.32852e-18
1.34227e-18
1.11448e-18
1.16664e-18
1.9092e-18
1.52013e-18
1.08556e-18
1.10434e-18
1.19387e-18
1.10096e-18
1.41779e-18
9.01304e-19
9.4843e-19
1.22034e-18
1.19604e-18
1.20807e-18
1.2311e-18
1.04161e-18
9.76092e-19
1.41138e-18
1.21253e-18
1.31944e-18
1.39999e-18
2.95018e-18
1.71257e-18
1.92121e-18
2.04846e-18
1.83944e-18
1.80621e-18
2.04016e-18
2.57535e-18
2.71157e-18
1.69444e-18
1.57515e-18
1.48895e-18
2.59325e-18
1.53613e-18
3.39392e-18
2.13724e-18
2.17043e-18
2.17659e-18
1.81402e-18
1.45217e-18
1.85185e-18
1.57685e-18
1.30638e-18
2.2349e-18
2.6252e-18
1.54831e-18
2.56266e-18
2.58297e-18
1.61482e-18
3.18368e-18
3.05721e-18
2.12566e-18
2.07893e-18
2.80107e-18
2.04635e-18
3.22777e-18
2.66366e-18
2.19193e-18
1.79745e-18
2.58311e-18
2.59299e-18
1.64242e-18
1.73843e-18
1.28707e-18
1.8026e-18
3.0568e-18
1.98667e-18
2.6018e-18
2.58409e-18
1.07371e-18
2.40281e-18
2.03926e-18
2.4138e-18
1.80222e-18
9.2236e-19
1.98094e-18
2.81615e-18
1.81615e-18
2.73387e-18
2.59318e-18
3.30813e-18
2.02902e-18
1.69678e-18
2.35273e-18
3.37785e-18
2.40687e-18
2.70287e-18
3.42057e-18
2.0833e-18
2.25924e-18
1.71921e-18
2.51265e-18
2.67206e-18
2.65324e-18
2.1784e-18
1.48395e-18
2.18842e-18
1.83534e-18
2.20231e-18
1.79556e-18
2.89508e-18
2.19587e-18
1.61713e-18
2.22611e-18
1.2081e-18
2.16134e-18
1.97827e-18
2.48662e-18
2.33057e-18
1.67116e-18
2.27872e-18
2.59908e-18
2.37596e-18
1.76062e-18
2.32425e-18
2.69268e-18
1.54967e-18
1.70265e-18
2.02026e-18
2.20623e-18
2.17771e-18
2.34843e-18
1.60782e-18
2.04924e-18
1.95149e-18
1.95767e-18
2.10813e-18
1.86099e-18
1.54779e-18
2.93286e-18
2.65536e-18
3.56799e-18
3.76007e-18
3.11953e-18
2.71498e-18
3.38881e-18
2.46379e-18
2.48823e-18
1.97793e-18
3.0143e-18
2.91264e-18
1.80888e-18
1.64989e-18
1.62624e-18
1.292e-18
1.6285e-18
2.22111e-18
2.9285e-18
2.9327e-18
2.05025e-18
2.86454e-18
2.03317e-18
2.24847e-18
2.84253e-18
2.74093e-18
2.87757e-18
2.04725e-18
2.16834e-18
2.39981e-18
2.42365e-18
1.8038e-18
3.35246e-18
3.03053e-18
2.92981e-18
1.81159e-18
2.33119e-18
2.98999e-18
1.99524e-18
2.92841e-18
3.24403e-18
2.28314e-18
2.60083e-18
2.04641e-18
2.8723e-18
2.03603e-18
2.93276e-18
2.10852e-18
1.6914e-18
1.66302e-18
1.17999e-18
1.41082e-18
2.1594e-18
2.04535e-18
2.20615e-18
2.20419e-18
2.17801e-18
1.50974e-18
1.40236e-18
1.43323e-18
2.0823e-18
2.15072e-18
2.43674e-18
1.87942e-18
1.56211e-18
2.3931e-18
2.31482e-18
2.50083e-18
1.79184e-18
1.09138e-18
2.23753e-18
1.55872e-18
2.11905e-18
2.00243e-18
3.05415e-18
2.45038e-18
1.53509e-18
2.30324e-18
2.00316e-18
2.31347e-18
2.1963e-18
2.2546e-18
2.66684e-18
2.76788e-18
2.67129e-18
2.90989e-18
1.83e-18
1.2699e-18
2.58906e-18
3.58453e-18
1.59059e-18
2.36516e-18
1.46106e-18
2.10168e-18
1.81759e-18
2.50427e-18
2.82144e-18
2.38533e-18
2.68615e-18
1.41895e-18
2.23261e-18
2.3785e-18
1.71547e-18
2.07542e-18
2.09235e-18
3.23214e-18
2.02029e-18
2.59537e-18
2.87136e-18
2.10886e-18
2.31996e-18
2.9182e-18
2.36347e-18
1.55536e-18
1.65547e-18
1.9354e-18
2.535e-18
2.1697e-18
1.60843e-18
2.74872e-18
1.77009e-18
2.07007e-18
1.93162e-18
1.75011e-18
3.22375e-18
2.11074e-18
1.84137e-18
3.14188e-18
1.71206e-18
2.05821e-18
2.3107e-18
1.64091e-18
1.69092e-18
1.91348e-18
2.41599e-18
1.14591e-18
2.2936e-18
2.91357e-18
2.02055e-18
1.28326e-18
2.74958e-18
2.09199e-18
3.26043e-18
2.20868e-18
2.11035e-18
1.695e-18
2.34477e-18
4.46032e-18
3.93574e-18
7.64872e-18
4.29161e-18
5.53879e-18
4.09528e-18
4.79708e-18
5.69404e-18
3.92153e-18
5.15348e-18
3.34556e-18
4.06212e-18
4.92611e-18
6.6588e-18
7.80956e-18
4.20977e-18
4.88923e-18
5.07551e-18
3.77849e-18
3.9763e-18
3.48244e-18
3.0455e-18
4.1186e-18
3.39825e-18
3.96191e-18
3.46891e-18
2.88083e-18
3.32194e-18
5.19822e-18
4.54871e-18
4.42147e-18
4.79403e-18
2.05964e-18
2.49553e-18
4.19205e-18
2.72696e-18
3.31076e-18
4.12896e-18
4.61527e-18
3.62442e-18
5.1757e-18
4.71327e-18
4.42333e-18
3.99387e-18
4.30923e-18
3.07212e-18
3.75126e-18
4.58347e-18
5.95844e-18
5.50601e-18
4.92637e-18
2.78604e-18
5.08516e-18
4.60121e-18
4.48777e-18
3.70509e-18
6.06312e-18
5.76284e-18
4.63844e-18
2.98487e-18
3.4711e-18
2.74636e-18
4.06646e-18
4.96522e-18
2.94813e-18
4.90299e-18
5.11455e-18
3.81974e-18
3.54998e-18
4.70885e-18
4.6931e-18
4.93769e-18
4.48525e-18
3.34422e-18
5.1943e-18
3.5107e-18
4.45053e-18
2.44924e-18
5.3498e-18
4.56008e-18
3.24612e-18
4.00078e-18
3.7627e-18
4.40736e-18
3.4321e-18
5.09917e-18
3.37783e-18
3.18142e-18
7.92529e-18
6.79999e-18
4.75083e-18
5.56372e-18
6.00584e-18
3.52413e-18
5.56361e-18
6.03075e-18
3.10152e-18
3.99253e-18
3.04206e-18
3.79157e-18
3.30528e-18
3.81662e-18
4.69259e-18
4.98434e-18
4.07018e-18
4.43132e-18
3.27649e-18
4.25604e-18
5.34704e-18
3.87467e-18
3.57625e-18
5.33399e-18
4.73624e-18
1.89896e-18
5.67842e-18
3.17552e-18
3.87818e-18
3.49442e-18
4.42472e-18
3.68264e-18
7.53682e-18
2.99048e-18
3.85862e-18
4.49684e-18
5.45687e-18
4.64765e-18
5.86003e-18
2.84707e-18
4.47633e-18
3.26352e-18
4.27257e-18
5.36569e-18
5.13371e-18
5.52388e-18
4.33762e-18
5.11376e-18
3.71043e-18
4.53002e-18
2.46225e-18
2.76189e-18
3.44245e-18
4.53307e-18
4.87169e-18
5.42634e-18
4.68694e-18
3.89645e-18
4.24259e-18
3.60416e-18
3.71371e-18
3.5495e-18
2.84643e-18
2.81238e-18
5.53007e-18
4.00801e-18
4.63399e-18
5.57021e-18
7.154e-18
3.85163e-18
4.02617e-18
4.87364e-18
4.95524e-18
4.39647e-18
3.85051e-18
3.71017e-18
2.55572e-18
3.18215e-18
6.12329e-18
3.14166e-18
4.1194e-18
3.84262e-18
5.98453e-18
2.46459e-18
3.29161e-18
3.80115e-18
2.86516e-18
4.21122e-18
6.51387e-18
4.91117e-18
4.30492e-18
4.40612e-18
4.19077e-18
3.49381e-18
3.04529e-18
2.83246e-18
4.58695e-18
3.37985e-18
2.62891e-18
3.06141e-18
5.37237e-18
4.0078e-18
4.47709e-18
4.421e-18
4.45333e-18
5.01563e-18
3.19125e-18
3.90833e-18
3.69631e-18
4.04482e-18
4.87061e-18
4.25358e-18
4.86234e-18
5.99748e-18
3.50484e-18
3.45147e-18
2.57188e-18
3.17086e-18
4.58131e-18
5.31383e-18
5.21339e-18
3.82307e-18
3.9278e-18
4.82255e-18
5.1174e-18
3.31065e-18
3.9559e-18
3.73209e-18
4.04167e-18
5.08257e-18
4.1116e-18
4.54938e-18
4.42142e-18
3.6227e-18
3.64569e-18
4.04013e-18
3.71107e-18
3.57366e-18
4.07062e-18
4.10001e-18
4.43934e-18
3.55585e-18
3.43701e-18
4.41709e-18
3.89027e-18
2.32471e-18
3.87139e-18
1.82594e-18
3.73638e-18
3.60775e-18
5.18641e-18
3.28247e-18
4.66433e-18
3.35182e-18
2.39972e-18
3.76713e-18
4.01516e-18
3.06154e-18
3.28153e-18
6.93759e-18
3.20242e-18
2.73192e-18
3.64871e-18
2.85978e-18
3.42425e-18
4.97499e-18
5.36802e-18
2.93264e-18
9.63494e-18
9.23142e-18
6.87167e-18
9.38512e-18
7.54195e-18
8.55403e-18
1.06115e-17
6.54978e-18
6.07357e-18
9.01615e-18
3.80644e-18
9.26039e-18
8.12697e-18
7.46262e-18
7.28734e-18
8.52694e-18
8.41424e-18
4.38039e-18
1.01402e-17
1.04789e-17
5.38209e-18
9.07934e-18
8.52462e-18
9.6119e-18
1.07108e-17
7.69857e-18
5.11689e-18
5.11203e-18
5.77352e-18
5.7266e-18
6.72295e-18
7.6274e-18
5.15509e-18
1.18289e-17
6.21038e-18
5.79836e-18
5.52229e-18
1.17605e-17
7.69087e-18
9.17349e-18
6.35215e-18
6.73334e-18
6.49243e-18
8.06679e-18
8.06033e-18
9.41758e-18
1.31854e-17
1.07078e-17
9.8285e-18
6.85882e-18
8.67202e-18
8.93221e-18
5.63191e-18
5.51209e-18
6.70536e-18
5.85918e-18
9.11545e-18
5.75545e-18
5.91797e-18
9.58172e-18
7.24327e-18
8.60826e-18
6.5341e-18
1.03342e-17
9.73996e-18
3.93428e-18
7.37125e-18
5.94366e-18
6.27558e-18
8.46011e-18
1.00645e-17
1.19331e-17
1.00145e-17
6.90178e-18
8.74614e-18
9.53782e-18
8.32711e-18
1.09255e-17
5.58788e-18
6.08193e-18
9.51495e-18
9.79635e-18
8.7803e-18
1.17508e-17
6.6017e-18
3.39115e-18
8.84121e-18
8.2796e-18
7.67702e-18
8.15999e-18
1.09103e-17
7.31809e-18
8.48469e-18
8.88891e-18
9.27215e-18
7.80995e-18
8.94898e-18
7.81022e-18
5.57392e-18
8.49589e-18
8.48879e-18
1.14069e-17
7.97107e-18
9.79562e-18
3.99243e-18
8.13479e-18
7.34754e-18
4.31156e-18
4.28778e-18
8.00563e-18
5.47148e-18
1.14433e-17
8.56751e-18
7.81568e-18
6.01562e-18
5.87807e-18
7.76747e-18
5.7486e-18
6.26322e-18
4.59579e-18
8.68614e-18
9.41933e-18
8.1716e-18
7.27005e-18
8.18577e-18
9.36444e-18
7.12742e-18
5.64925e-18
8.48169e-18
4.59824e-18
9.79704e-18
8.36002e-18
7.24508e-18
1.2282e-17
5.79661e-18
9.19528e-18
8.27667e-18
7.31514e-18
6.23168e-18
6.13157e-18
7.78901e-18
8.61884e-18
1.00513e-17
1.047e-17
8.17275e-18
5.84977e-18
1.05113e-17
5.31767e-18
5.1396e-18
7.44795e-18
3.1534e-18
7.23193e-18
7.88302e-18
8.06e-18
8.55867e-18
8.49939e-18
7.04938e-18
7.66473e-18
6.32418e-18
8.80247e-18
6.05082e-18
8.67248e-18
8.88836e-18
7.23129e-18
6.72123e-18
9.32867e-18
8.38135e-18
9.0723e-18
7.40823e-18
8.38202e-18
3.75783e-18
5.95161e-18
6.77381e-18
6.8756e-18
5.88807e-18
6.17549e-18
9.87606e-18
7.73878e-18
7.92084e-18
1.07988e-17
7.44817e-18
5.27705e-18
1.25317e-17
7.19882e-18
4.46628e-18
7.95532e-18
4.08468e-18
6.57677e-18
5.21757e-18
8.71787e-18
7.0151e-18
7.30651e-18
5.13859e-18
7.84971e-18
1.1641e-17
7.58537e-18
8.7585e-18
6.28328e-18
6.52568e-18
7.46866e-18
6.6391e-18
8.18322e-18
7.68277e-18
6.82025e-18
7.17723e-18
1.17568e-17
1.18717e-17
1.13275e-17
6.49539e-18
8.33402e-18
1.01118e-17
8.06704e-18
5.04202e-18
7.11285e-18
8.79842e-18
7.38879e-18
7.55576e-18
7.90095e-18
9.70595e-18
6.54235e-18
8.37195e-18
8.63276e-18
8.49472e-18
9.25321e-18
7.68858e-18
1.00738e-17
9.65637e-18
5.28452e-18
7.44662e-18
7.23464e-18
8.78875e-18
8.52784e-18
1.03167e-17
5.94947e-18
5.92862e-18
5.43223e-18
4.5599e-18
9.9555e-18
7.18608e-18
5.28044e-18
6.48986e-18
5.16965e-18
8.64823e-18
1.01287e-17
6.74375e-18
5.50108e-18
6.85419e-18
5.0679e-18
6.42749e-18
5.63638e-18
6.22146e-18
7.91872e-18
7.82133e-18
9.51603e-18
5.18533e-18
5.89924e-18
1.56308e-17
1.37478e-17
1.37927e-17
1.10824e-17
2.25691e-17
1.92766e-17
8.82012e-18
1.13488e-17
1.42567e-17
1.27667e-17
1.91114e-17
1.16096e-17
1.52506e-17
2.20805e-17
1.32011e-17
1.72452e-17
1.37576e-17
1.42316e-17
2.04248e-17
1.548e-17
1.44241e-17
1.87054e-17
8.36451e-18
1.43205e-17
1.34926e-17
1.43666e-17
1.44327e-17
1.68355e-17
1.15349e-17
1.27957e-17
1.19749e-17
1.88852e-17
1.04745e-17
1.47501e-17
8.47609e-18
1.57996e-17
1.58356e-17
1.4705e-17
2.01634e-17
1.42651e-17
1.399e-17
1.08648e-17
1.54804e-17
2.27021e-17
1.81892e-17
1.80249e-17
1.53524e-17
2.08158e-17
1.06134e-17
1.11383e-17
1.89987e-17
1.08755e-17
1.57066e-17
1.84625e-17
1.10383e-17
1.62292e-17
1.07945e-17
1.53937e-17
1.35175e-17
1.60619e-17
2.38804e-17
1.84007e-17
1.35923e-17
1.39923e-17
1.58988e-17
1.20463e-17
1.82899e-17
1.47867e-17
2.14334e-17
1.68637e-17
1.79169e-17
1.50003e-17
1.02506e-17
1.37401e-17
1.59533e-17
1.14903e-17
1.34536e-17
7.36395e-18
1.5711e-17
1.99344e-17
1.87431e-17
1.3665e-17
1.04911e-17
1.78747e-17
1.39286e-17
1.29961e-17
1.75215e-17
1.39942e-17
1.09101e-17
1.02447e-17
1.49089e-17
1.94109e-17
1.62511e-17
1.53859e-17
1.5745e-17
9.83306e-18
1.25468e-17
5.27177e-18
1.71079e-17
1.34959e-17
1.11447e-17
1.31636e-17
1.35368e-17
1.2369e-17
1.95357e-17
1.7132e-17
1.0876e-17
9.84711e-18
1.68018e-17
1.99459e-17
1.65375e-17
1.071e-17
9.42852e-18
1.17818e-17
1.58692e-17
1.67148e-17
1.31437e-17
1.52278e-17
1.47571e-17
1.19559e-17
2.04669e-17
1.09331e-17
9.02923e-18
1.33024e-17
1.58874e-17
1.60194e-17
1.78253e-17
2.16155e-17
1.61031e-17
1.34217e-17
1.88035e-17
1.30348e-17
1.99038e-17
2.4188e-17
1.26136e-17
1.52368e-17
1.32147e-17
1.20125e-17
1.50176e-17
6.3905e-18
1.4808e-17
1.29738e-17
1.92907e-17
1.38988e-17
9.55536e-18
1.24415e-17
1.38927e-17
1.36678e-17
1.79957e-17
1.5706e-17
1.11933e-17
1.36999e-17
1.29843e-17
1.21842e-17
2.14129e-17
2.31573e-17
1.44004e-17
2.28544e-17
8.98217e-18
1.31364e-17
9.69621e-18
4.74198e-18
1.09619e-17
1.71631e-17
1.78684e-17
1.01957e-17
1.40344e-17
1.24537e-17
1.78059e-17
9.03327e-18
1.43019e-17
1.27111e-17
7.26593e-18
9.57566e-18
1.61353e-17
1.90894e-17
1.38788e-17
1.40403e-17
1.26548e-17
1.60203e-17
1.62479e-17
1.70403e-17
1.9233e-17
2.00701e-17
1.53116e-17
1.41379e-17
1.13757e-17
1.04723e-17
1.44922e-17
1.06131e-17
8.1945e-18
1.19174e-17
1.01064e-17
1.48279e-17
1.42425e-17
1.36615e-17
2.12985e-17
1.49388e-17
1.866e-17
9.91795e-18
1.43195e-17
1.00914e-17
1.44862e-17