# vtk DataFile Version 1.0
Ion Density - Current Sheet
ASCII
DATASET STRUCTURED_POINTS
DIMENSIONS 256 128 1
ORIGIN 0 0 0
SPACING 0.15625 0.15625 1
POINT_DATA 32768
SCALARS rhoi float
LOOKUP_TABLE default
4.72484e-20
1.85551e-20
5.79245e-20
6.03531e-20
2.77739e-20
5.48699e-20
1.14491e-19
7.38096e-20
6.09252e-20
7.36918e-20
4.98256e-20
9.13116e-20
4.7828e-20
5.862e-20
4.26426e-20
7.42673e-20
8.39574e-20
4.80117e-20
9.14084e-20
7.40842e-20
3.10741e-20
5.27041e-20
2.73058e-20
5.46856e-20
7.44462e-20
9.53109e-20
9.40226e-20
9.17438e-20
6.72776e-20
5.55632e-20
5.19666e-20
4.42741e-20
6.82626e-20
5.64371e-20
5.50553e-20
4.93726e-20
6.91666e-20
1.09884e-19
5.61385e-20
4.82732e-20
8.41072e-20
6.77342e-20
4.2229e-20
5.82321e-20
4.01483e-20
7.19093e-20
6.43941e-20
6.76588e-20
8.26738e-20
1.01861e-19
7.024e-20
7.10228e-20
6.54757e-20
9.07992e-20
6.22921e-20
8.07458e-20
4.64119e-20
5.61945e-20
4.3153e-20
4.9663e-20
8.41307e-20
4.20703e-20
4.47417e-20
4.06145e-20
4.56206e-20
4.94395e-20
5.61815e-20
5.90233e-20
7.11101e-20
5.45542e-20
4.42024e-20
4.84764e-20
6.91158e-20
4.61133e-20
2.80893e-20
5.15022e-20
6.28144e-20
6.89732e-20
5.27031e-20
5.16324e-20
6.57092e-20
5.81056e-20
8.08995e-20
5.23581e-20
9.69826e-20
5.6833e-20
4.82821e-20
8.64085e-20
4.44349e-20
7.04347e-20
6.98035e-20
4.82166e-20
6.33229e-20
8.06818e-20
9.51253e-20
1.31355e-19
6.68246e-20
8.59966e-20
5.80344e-20
3.30678e-20
2.71525e-20
5.33459e-20
7.8451e-20
1.10295e-19
5.64542e-20
9.84334e-20
5.23713e-20
4.82316e-20
8.56553e-20
7.2179e-20
2.63073e-20
7.24019e-20
1.03657e-19
6.65968e-20
5.07735e-20
5.22749e-20
5.92856e-20
5.94072e-20
3.545e-20
8.24766e-20
3.26008e-20
5.2335e-20
2.30689e-20
7.02665e-20
7.51416e-20
6.38664e-20
8.11191e-20
7.36537e-20
5.85413e-20
6.16509e-20
6.83105e-20
6.56156e-20
9.78787e-20
7.14095e-20
8.97914e-20
9.91145e-20
5.08251e-20
7.17024e-20
8.60096e-20
9.0517e-20
3.15585e-20
3.37822e-20
3.95806e-20
3.07745e-20
7.2801e-20
9.74331e-20
7.61144e-20
4.2175e-20
4.56557e-20
8.55926e-20
5.43328e-20
9.94979e-20
6.63202e-20
4.85133e-20
6.27906e-20
1.33218e-19
8.16942e-20
3.7823e-20
5.16384e-20
5.43222e-20
3.50077e-20
9.47445e-20
5.2363e-20
7.73129e-20
5.99659e-20
5.90343e-20
5.88354e-20
6.39728e-20
4.38508e-20
8.03283e-20
9.49335e-20
5.07454e-20
5.98957e-20
4.42698e-20
5.25385e-20
9.97192e-20
1.00555e-19
6.50089e-20
2.39602e-20
3.37929e-20
7.43297e-20
6.65308e-20
3.68445e-20
4.26609e-20
3.63876e-20
5.22282e-20
9.69715e-20
4.62876e-20
8.60079e-20
1.04156e-19
8.5656e-20
6.82855e-20
5.66951e-20
7.93738e-20
7.54396e-20
4.51528e-20
4.45974e-20
6.93888e-20
6.86716e-20
8.65145e-20
4.5628e-20
8.14101e-20
7.97899e-20
2.78727e-20
3.94613e-20
3.76419e-20
5.55718e-20
3.50675e-20
6.04161e-20
5.59889e-20
1.09597e-19
4.4518e-20
8.18444e-20
8.50373e-20
7.5972e-20
3.96978e-20
4.70071e-20
5.61493e-20
3.60292e-20
3.9805e-20
5.42389e-20
6.17501e-20
4.43083e-20
4.20219e-20
5.71344e-20
3.54869e-20
7.79735e-20
9.00525e-20
7.91864e-20
7.44314e-20
4.64403e-20
9.24006e-20
7.40303e-20
5.76709e-20
4.35076e-20
7.8407e-20
8.7372e-20
8.12812e-20
7.28234e-20
5.48888e-20
6.58009e-20
7.26678e-20
9.04813e-20
5.9556e-20
7.78818e-20
4.72973e-20
6.1499e-20
4.15306e-20
5.75242e-20
3.71381e-20
4.70262e-20
7.95384e-20
5.76585e-20
8.77017e-20
6.78873e-20
9.77078e-20
1.28879e-19
1.12843e-19
1.55231e-19
1.08428e-19
1.42482e-19
1.24487e-19
1.29416e-19
9.05929e-20
1.51499e-19
1.08838e-19
1.05838e-19
1.19859e-19
9.78073e-20
1.64961e-19
7.698e-20
8.91635e-20
8.78395e-20
9.89349e-20
1.50889e-19
1.23604e-19
9.37121e-20
9.7246e-20
1.3236e-19
1.40357e-19
1.03139e-19
1.64996e-19
1.14856e-19
1.19806e-19
1.15382e-19
1.39536e-19
1.16621e-19
1.17441e-19
1.12259e-19
7.76149e-20
9.33531e-20
1.075e-19
1.27028e-19
1.25252e-19
1.63974e-19
1.01957e-19
9.8632e-20
1.22742e-19
9.17952e-20
1.71321e-19
1.03563e-19
1.35021e-19
1.16265e-19
1.02316e-19
7.8938e-20
1.06996e-19
9.68556e-20
9.03352e-20
1.29451e-19
1.4321e-19
1.10438e-19
1.27083e-19
1.09668e-19
7.61134e-20
6.47969e-20
1.68623e-19
1.11539e-19
9.38266e-20
1.11268e-19
1.16762e-19
9.66657e-20
1.54866e-19
9.17953e-20
1.20069e-19
1.69156e-19
1.46476e-19
1.45564e-19
1.55665e-19
1.29403e-19
1.02324e-19
1.041e-19
1.22375e-19
1.30712e-19
7.52662e-20
9.75841e-20
9.83721e-20
1.68391e-19
8.26823e-20
8.53748e-20
9.95518e-20
8.92002e-20
1.72948e-19
9.27778e-20
1.00244e-19
1.53052e-19
1.1189e-19
1.05034e-19
9.00641e-20
1.0288e-19
1.36883e-19
8.64215e-20
1.47358e-19
1.36052e-19
1.44895e-19
1.38149e-19
1.08951e-19
1.12252e-19
1.36243e-19
8.6349e-20
1.32097e-19
1.92547e-19
1.28668e-19
1.26023e-19
1.603e-19
1.33142e-19
7.47315e-20
1.29936e-19
1.77073e-19
1.0052e-19
8.47511e-20
1.6424e-19
1.58319e-19
1.72171e-19
1.31863e-19
1.66243e-19
1.643e-19
9.70154e-20
1.24948e-19
1.48475e-19
1.33894e-19
1.5866e-19
1.13834e-19
1.0043e-19
8.23727e-20
1.01272e-19
1.28834e-19
8.76199e-20
9.68435e-20
1.49414e-19
1.13034e-19
8.37576e-20
1.20678e-19
1.19845e-19
6.57759e-20
1.60785e-19
1.1689e-19
9.75981e-20
9.33734e-20
1.37078e-19
1.2169e-19
1.5607e-19
1.61924e-19
1.03597e-19
1.46669e-19
9.9551e-20
1.29237e-19
1.19025e-19
1.06796e-19
7.87659e-20
1.23281e-19
9.63423e-20
5.95181e-20
1.38952e-19
1.24794e-19
9.49434e-20
1.59382e-19
1.6323e-19
9.42103e-20
7.94806e-20
8.9276e-20
1.07242e-19
1.08939e-19
1.15313e-19
1.44889e-19
1.15468e-19
1.05454e-19
1.43083e-19
7.3938e-20
5.74928e-20
9.96877e-20
9.56e-20
1.06412e-19
1.17156e-19
1.78565e-19
1.00793e-19
1.36008e-19
1.14889e-19
1.2806e-19
7.4204e-20
1.29073e-19
1.29764e-19
1.25134e-19
7.43975e-20
1.56749e-19
1.63538e-19
1.43253e-19
1.17524e-19
9.54258e-20
1.27525e-19
1.38465e-19
9.90625e-20
1.77359e-19
1.18592e-19
1.12419e-19
1.18189e-19
1.4813e-19
1.18004e-19
1.19167e-19
1.30366e-19
1.02011e-19
1.16588e-19
9.61181e-20
7.43136e-20
1.88848e-19
1.60103e-19
1.32862e-19
1.26717e-19
1.47837e-19
1.2612e-19
1.29059e-19
1.09479e-19
1.37089e-19
8.95183e-20
8.05483e-20
1.13305e-19
1.7131e-19
2.04748e-19
1.42534e-19
1.51339e-19
1.30037e-19
1.05804e-19
9.37645e-20
1.1106e-19
1.29495e-19
1.44443e-19
1.17749e-19
8.73378e-20
1.13208e-19
7.74086e-20
1.16428e-19
1.68878e-19
8.34329e-20
1.16226e-19
7.71988e-20
9.83384e-20
1.51733e-19
1.57227e-19
7.94255e-20
1.38852e-19
1.0643e-19
8.66802e-20
1.27405e-19
1.03877e-19
8.92052e-20
1.07491e-19
7.24345e-20
1.08851e-19
8.49964e-20
1.32848e-19
9.48638e-20
1.12741e-19
1.39993e-19
1.75793e-19
1.47753e-19
2.06366e-19
3.38211e-19
2.1379e-19
2.21276e-19
2.16041e-19
1.68122e-19
1.11434e-19
1.73955e-19
1.90816e-19
2.19319e-19
1.52764e-19
1.69826e-19
2.18085e-19
1.93766e-19
1.4778e-19
2.94159e-19
2.53224e-19
2.41597e-19
3.16971e-19
2.36897e-19
1.99175e-19
2.26052e-19
2.31081e-19
1.99947e-19
2.58093e-19
2.43583e-19
2.39609e-19
2.30345e-19
1.86807e-19
1.69371e-19
1.02255e-19
1.04335e-19
2.06597e-19
1.66549e-19
2.38383e-19
2.90664e-19
2.32806e-19
2.04912e-19
1.87339e-19
2.39218e-19
2.2054e-19
2.09774e-19
2.60021e-19
3.07444e-19
1.6682e-19
2.04864e-19
1.47082e-19
1.59673e-19
2.56082e-19
2.89562e-19
1.61194e-19
2.31447e-19
1.62821e-19
8.74167e-20
1.82012e-19
3.04277e-19
2.08908e-19
2.75014e-19
2.7815e-19
2.18733e-19
1.95907e-19
1.6692e-19
2.23835e-19
1.88568e-19
2.8275e-19
2.42657e-19
1.64445e-19
2.24439e-19
2.46706e-19
2.0899e-19
1.48005e-19
2.0404e-19
2.50628e-19
2.10513e-19
1.10141e-19
1.50387e-19
2.7102e-19
1.77342e-19
2.37452e-19
1.84963e-19
2.33157e-19
1.84268e-19
2.26402e-19
2.09868e-19
1.31763e-19
2.4601e-19
2.06388e-19
3.12593e-19
2.41094e-19
2.24185e-19
2.38089e-19
3.17694e-19
2.07392e-19
2.61495e-19
2.09267e-19
1.55359e-19
2.85763e-19
1.68913e-19
2.0219e-19
1.54629e-19
2.72285e-19
2.20851e-19
2.3911e-19
1.05749e-19
2.92204e-19
2.14819e-19
9.54199e-20
1.93314e-19
1.45935e-19
2.51315e-19
1.93539e-19
2.55279e-19
2.5532e-19
1.84718e-19
1.79003e-19
1.91713e-19
1.00636e-19
1.84228e-19
1.96553e-19
3.15453e-19
1.60843e-19
1.79646e-19
2.25442e-19
1.91242e-19
2.35031e-19
2.08556e-19
2.8918e-19
1.60802e-19
1.86131e-19
2.19266e-19
1.55758e-19
2.46515e-19
3.22617e-19
2.21354e-19
1.90273e-19
2.13081e-19
1.55664e-19
2.04344e-19
2.26262e-19
1.83427e-19
1.15863e-19
2.07588e-19
2.07537e-19
2.22352e-19
3.56751e-19
2.36291e-19
1.26027e-19
3.16493e-19
2.70729e-19
2.15902e-19
2.71492e-19
1.91253e-19
1.64967e-19
1.95699e-19
1.73051e-19
1.85249e-19
2.13028e-19
1.88813e-19
1.61687e-19
2.19486e-19
1.53686e-19
1.92023e-19
1.28234e-19
1.34482e-19
1.98594e-19
1.82432e-19
1.77748e-19
2.25902e-19
2.4999e-19
2.07522e-19
1.53979e-19
1.47881e-19
1.49461e-19
2.86568e-19
2.54623e-19
1.82789e-19
1.58625e-19
1.80705e-19
1.85216e-19
1.75962e-19
1.83372e-19
1.90344e-19
2.90704e-19
1.18981e-19
1.94921e-19
2.8315e-19
2.60487e-19
2.3147e-19
2.13974e-19
2.43859e-19
2.00656e-19
2.33458e-19
1.29529e-19
2.23893e-19
2.21005e-19
2.82639e-19
1.93657e-19
2.29723e-19
1.24177e-19
1.8533e-19
2.7121e-19
2.65823e-19
1.39783e-19
2.06369e-19
1.28139e-19
2.34172e-19
2.14843e-19
1.7123e-19
2.80971e-19
1.74393e-19
2.54502e-19
2.81645e-19
1.60818e-19
2.39033e-19
1.27648e-19
1.56761e-19
2.09779e-19
3.05129e-19
2.28919e-19
3.2824e-19
1.85885e-19
1.95164e-19
1.22813e-19
2.48338e-19
2.30885e-19
2.4798e-19
1.16041e-19
2.47383e-19
1.967e-19
1.7548e-19
1.41612e-19
2.94256e-19
1.8512e-19
1.46418e-19
1.42566e-19
1.42914e-19
1.33237e-19
3.09533e-19
2.17886e-19
2.29214e-19
1.85181e-19
2.05637e-19
1.26144e-19
1.26361e-19
2.36303e-19
1.51883e-19
2.50383e-19
1.61536e-19
1.48793e-19
2.09862e-19
2.80366e-19
1.74158e-19
2.37432e-19
2.17003e-19
4.00766e-19
1.92192e-19
4.50109e-19
6.1481e-19
4.53003e-19
3.51966e-19
3.75542e-19
3.39579e-19
3.70402e-19
4.06522e-19
4.22283e-19
4.05613e-19
2.85061e-19
6.18238e-19
4.06957e-19
3.36977e-19
4.78743e-19
2.34037e-19
4.62967e-19
1.87471e-19
5.70388e-19
2.5793e-19
3.51492e-19
3.47437e-19
3.90834e-19
4.18394e-19
4.29798e-19
4.10619e-19
2.93589e-19
3.22352e-19
4.38182e-19
3.19424e-19
3.20924e-19
4.46876e-19
2.06904e-19
4.35163e-19
3.30984e-19
2.61182e-19
4.31316e-19
5.48534e-19
3.41979e-19
2.75241e-19
2.87249e-19
2.02169e-19
3.73972e-19
5.24019e-19
3.57674e-19
3.90484e-19
3.54445e-19
4.06743e-19
4.82546e-19
3.90794e-19
4.34742e-19
3.86805e-19
5.08713e-19
5.06306e-19
3.51516e-19
4.42337e-19
3.2987e-19
4.067e-19
3.52173e-19
4.46568e-19
4.92118e-19
3.41959e-19
2.96212e-19
4.65899e-19
4.2689e-19
2.77079e-19
3.32198e-19
3.56966e-19
5.49091e-19
4.11393e-19
3.02228e-19
3.41954e-19
5.6872e-19
3.21618e-19
1.87091e-19
2.72931e-19
2.95854e-19
3.35252e-19
2.85901e-19
2.72953e-19
4.20356e-19
3.00681e-19
1.72549e-19
3.31984e-19
3.52927e-19
6.03881e-19
3.53171e-19
4.18178e-19
4.23921e-19
2.71024e-19
5.30618e-19
5.67312e-19
2.60876e-19
3.0655e-19
4.21352e-19
4.07041e-19
3.29918e-19
3.41656e-19
3.11388e-19
3.33211e-19
4.3975e-19
4.28164e-19
3.1307e-19
3.06767e-19
2.68234e-19
3.57513e-19
3.97211e-19
4.17424e-19
3.80106e-19
2.94498e-19
4.77777e-19
3.41904e-19
3.56445e-19
3.15568e-19
4.20712e-19
3.17247e-19
2.5459e-19
2.78422e-19
3.59772e-19
3.93795e-19
3.96941e-19
4.01588e-19
3.87388e-19
4.48037e-19
3.22297e-19
3.16349e-19
3.38323e-19
4.84678e-19
4.15694e-19
5.41645e-19
3.31768e-19
4.67969e-19
3.09351e-19
5.61928e-19
3.11533e-19
2.80737e-19
3.69593e-19
2.63756e-19
4.24053e-19
3.84387e-19
3.53038e-19
2.89852e-19
4.87901e-19
4.33441e-19
3.30318e-19
2.91822e-19
2.77725e-19
3.30823e-19
2.19466e-19
3.43295e-19
5.10986e-19
3.91717e-19
3.56625e-19
3.71172e-19
3.2039e-19
3.05867e-19
4.84254e-19
3.68392e-19
4.54439e-19
3.88104e-19
2.50809e-19
3.21402e-19
4.7459e-19
3.03815e-19
4.14624e-19
3.60514e-19
3.96371e-19
4.33389e-19
4.28154e-19
3.61021e-19
2.20717e-19
4.0059e-19
4.38018e-19
3.98394e-19
2.44128e-19
3.78844e-19
3.27818e-19
2.9057e-19
4.45793e-19
3.1969e-19
2.72304e-19
4.10484e-19
2.05501e-19
4.24087e-19
3.53486e-19
5.08133e-19
3.48349e-19
2.99496e-19
2.40923e-19
2.52608e-19
4.22669e-19
4.52951e-19
5.0713e-19
2.73463e-19
3.76277e-19
3.96237e-19
3.01795e-19
3.38342e-19
2.68153e-19
3.86452e-19
2.75175e-19
2.79584e-19
3.4582e-19
4.00736e-19
5.9764e-19
3.48387e-19
2.07016e-19
4.65002e-19
2.99152e-19
2.19191e-19
2.42818e-19
3.76161e-19
4.24888e-19
3.66462e-19
1.82465e-19
3.5597e-19
2.72725e-19
4.10221e-19
5.20118e-19
3.88779e-19
3.8653e-19
3.30277e-19
3.54954e-19
3.47883e-19
4.029e-19
4.10123e-19
1.62728e-19
3.01866e-19
3.15012e-19
3.54871e-19
4.09519e-19
2.77045e-19
5.95979e-19
4.75351e-19
1.91506e-19
4.28667e-19
3.08969e-19
6.08082e-19
2.89879e-19
3.57251e-19
4.18207e-19
5.19143e-19
2.64833e-19
5.78811e-19
2.87089e-19
2.63965e-19
2.704e-19
4.15481e-19
2.77755e-19
2.6576e-19
4.81689e-19
2.2961e-19
3.60559e-19
3.72307e-19
7.67991e-19
6.1091e-19
5.62159e-19
5.72542e-19
7.02544e-19
8.81038e-19
4.54408e-19
4.40791e-19
7.05907e-19
9.84903e-19
7.01528e-19
8.79504e-19
8.87455e-19
5.48617e-19
6.78815e-19
6.54205e-19
6.07622e-19
6.22319e-19
6.35178e-19
3.1632e-19
6.29721e-19
6.36237e-19
3.58851e-19
8.06956e-19
7.15782e-19
7.75895e-19
1.09644e-18
7.43265e-19
8.05398e-19
7.77006e-19
6.71606e-19
4.44333e-19
7.44407e-19
6.70871e-19
7.32047e-19
6.54306e-19
7.64075e-19
6.97374e-19
6.96789e-19
8.07297e-19
7.19556e-19
7.08522e-19
6.66139e-19
2.89073e-19
3.78898e-19
6.31013e-19
4.11182e-19
4.16426e-19
6.39689e-19
6.48178e-19
4.38869e-19
5.25222e-19
5.59938e-19
5.70423e-19
5.16032e-19
6.34082e-19
4.72405e-19
6.60941e-19
1.02834e-18
8.06508e-19
5.92027e-19
5.2963e-19
4.73445e-19
7.33511e-19
4.49437e-19
9.8153e-19
8.40315e-19
7.18566e-19
7.83258e-19
6.31058e-19
6.27078e-19
4.18528e-19
7.32234e-19
7.06659e-19
8.00392e-19
6.81026e-19
4.27952e-19
8.8174e-19
3.44428e-19
4.27188e-19
7.18479e-19
7.13282e-19
8.65596e-19
6.13102e-19
4.18766e-19
7.02407e-19
7.55804e-19
5.22625e-19
6.53935e-19
7.44321e-19
4.35774e-19
5.29113e-19
6.59103e-19
4.44951e-19
9.35625e-19
6.33983e-19
6.82191e-19
5.67005e-19
5.38869e-19
6.11709e-19
7.06319e-19
5.63268e-19
7.60775e-19
7.44076e-19
4.74352e-19
8.38872e-19
7.54222e-19
4.82984e-19
5.61161e-19
9.50521e-19
6.73466e-19
9.27721e-19
4.72269e-19
6.6129e-19
6.05211e-19
7.88726e-19
7.71593e-19
6.79469e-19
8.93541e-19
4.2892e-19
4.16216e-19
1.08554e-18
9.07052e-19
3.88847e-19
5.80084e-19
7.11235e-19
8.56701e-19
6.60781e-19
4.33157e-19
6.75956e-19
6.94856e-19
7.47764e-19
6.69468e-19
6.99451e-19
5.67491e-19
9.24103e-19
4.59536e-19
7.2692e-19
5.07429e-19
7.05026e-19
9.42343e-19
9.68273e-19
8.88723e-19
7.50808e-19
8.59348e-19
7.19392e-19
6.39034e-19
8.49946e-19
3.88151e-19
8.09048e-19
7.63261e-19
7.39432e-19
5.4123e-19
7.21513e-19
6.07979e-19
7.50625e-19
7.80013e-19
6.70068e-19
7.8797e-19
4.61763e-19
5.13249e-19
7.19084e-19
4.98244e-19
6.53637e-19
6.02383e-19
8.92611e-19
7.86707e-19
5.53868e-19
4.50422e-19
8.63348e-19
8.55444e-19
3.57964e-19
8.0883e-19
7.97242e-19
8.55425e-19
8.54764e-19
5.28786e-19
6.83646e-19
7.12772e-19
8.13239e-19
8.14706e-19
5.40718e-19
7.2348e-19
5.68812e-19
5.4547e-19
4.28617e-19
5.73581e-19
6.4979e-19
5.31366e-19
7.64142e-19
6.32869e-19
4.55011e-19
2.04019e-19
8.48108e-19
1.13144e-18
9.87379e-19
9.95764e-19
7.64888e-19
5.22577e-19
8.09434e-19
5.46505e-19
4.78723e-19
3.47564e-19
6.3498e-19
3.88448e-19
9.08766e-19
6.45124e-19
8.52555e-19
8.95669e-19
9.73345e-19
3.969e-19
4.60006e-19
5.78526e-19
6.6616e-19
4.60275e-19
8.06756e-19
5.35104e-19
3.81583e-19
8.18176e-19
8.58381e-19
6.43352e-19
4.54202e-19
9.17855e-19
7.21122e-19
5.27745e-19
7.15367e-19
3.53664e-19
6.63309e-19
6.31095e-19
6.50139e-19
8.97657e-19
6.74926e-19
5.89602e-19
5.39318e-19
6.14984e-19
7.15154e-19
1.05482e-18
5.19745e-19
6.32934e-19
1.31795e-18
4.73413e-19
7.52069e-19
3.71685e-19
6.36173e-19
7.56793e-19
4.4103e-19
5.44329e-19
7.99065e-19
6.38609e-19
5.93053e-19
6.19115e-19
5.93438e-19
5.02444e-19
8.4661e-19
6.55614e-19
4.11025e-19
1.62216e-18
1.46361e-18
1.25138e-18
1.44515e-18
1.17821e-18
1.3893e-18
9.6146e-19
1.15133e-18
1.16033e-18
9.7473e-19
1.68384e-18
6.42712e-19
1.48004e-18
1.36355e-18
1.70983e-18
1.50788e-18
1.5164e-18
7.86194e-19
1.25719e-18
1.28537e-18
1.08461e-18
2.0089e-18
1.30115e-18
1.38057e-18
1.42962e-18
1.10532e-18
8.00738e-19
1.12613e-18
1.38796e-18
1.33819e-18
1.0043e-18
1.3355e-18
1.37253e-18
1.54165e-18
1.04771e-18
1.09411e-18
1.21033e-18
9.0233e-19
1.37163e-18
8.47482e-19
8.64956e-19
1.33377e-18
1.1332e-18
8.85358e-19
1.32949e-18
9.12823e-19
1.61895e-18
1.00658e-18
1.24366e-18
1.07631e-18
9.09793e-19
5.91352e-19
1.32446e-18
7.53453e-19
1.39276e-18
9.51078e-19
1.47874e-18
1.19076e-18
8.68633e-19
1.44189e-18
9.83645e-19
9.44612e-19
9.65604e-19
1.2434e-18
1.18732e-18
1.02024e-18
1.13483e-18
1.09245e-18
1.14041e-18
1.41956e-18
7.81841e-19
9.02059e-19
7.92326e-19
1.23142e-18
1.26497e-18
1.53065e-18
1.06757e-18
1.09648e-18
7.58941e-19
1.2084e-18
9.15222e-19
9.43666e-19
7.85421e-19
1.44056e-18
1.19679e-18
1.09836e-18
1.33936e-18
1.35238e-18
1.03095e-18
1.29414e-18
1.45696e-18
1.26984e-18
8.42731e-19
1.25405e-18
7.98327e-19
1.52617e-18
1.23834e-18
1.86558e-18
1.59769e-18
1.40854e-18
1.70201e-18
8.6616e-19
1.29435e-18
8.5664e-19
1.73256e-18
1.45847e-18
1.05423e-18
7.36344e-19
8.22986e-19
1.61722e-18
1.79661e-18
1.26248e-18
1.2754e-18
1.46288e-18
1.75799e-18
1.2856e-18
8.16423e-19
8.90983e-19
1.53152e-18
1.86429e-18
8.92751e-19
1.4701e-18
1.26995e-18
1.71869e-18
1.1824e-18
1.13438e-18
1.54259e-18
4.8025e-19
1.17555e-18
1.12047e-18
1.30445e-18
1.42856e-18
1.36545e-18
1.32559e-18
1.56838e-18
6.33815e-19
1.83384e-18
1.57189e-18
1.06983e-18
1.33909e-18
1.19674e-18
1.19007e-18
9.53798e-19
1.11462e-18
1.05288e-18
1.35525e-18
1.44083e-18
1.08181e-18
1.16004e-18
1.32123e-18
1.33593e-18
1.10153e-18
1.15585e-18
1.37066e-18
8.35321e-19
1.2892e-18
1.84171e-18
9.4819e-19
8.8761e-19
9.83014e-19
1.34241e-18
1.07283e-18
1.73046e-18
1.95406e-18
1.17046e-18
1.46339e-18
1.34131e-18
1.31605e-18
1.05907e-18
1.12118e-18
1.0918e-18
1.49193e-18
1.40233e-18
1.31355e-18
9.76404e-19
1.20024e-18
1.84512e-18
1.56955e-18
1.44981e-18
1.50526e-18
1.59089e-18
1.45907e-18
1.14514e-18
1.93657e-18
1.1526e-18
8.79268e-19
9.94155e-19
1.9261e-18
1.15169e-18
1.63964e-18
1.40901e-18
1.54932e-18
9.81639e-19
6.81259e-19
1.50227e-18
1.79207e-18
1.2589e-18
1.80414e-18
1.18368e-18
1.72642e-18
1.14889e-18
1.03949e-18
1.39153e-18
1.34229e-18
1.23593e-18
1.01175e-18
9.38546e-19
1.49867e-18
1.48671e-18
1.06272e-18
1.34658e-18
1.21872e-18
1.15934e-18
1.3837e-18
6.81995e-19
9.51711e-19
1.56238e-18
1.27686e-18
8.77476e-19
1.3652e-18
1.55408e-18
1.26778e-18
1.59365e-18
1.16362e-18
1.22597e-18
1.24497e-18
8.9096e-19
1.3639e-18
1.12725e-18
1.62965e-18
1.18992e-18
1.06984e-18
1.01268e-18
1.19788e-18
1.79043e-18
1.35141e-18
1.3908e-18
8.56451e-19
1.13096e-18
1.30049e-18
8.97951e-19
1.08349e-18
1.26878e-18
1.60237e-18
8.03755e-19
8.95638e-19
9.43408e-19
1.34006e-18
1.05541e-18
8.90175e-19
9.86682e-19
7.93661e-19
7.57423e-19
8.83011e-19
1.30071e-18
1.2092e-18
2.9226e-18
2.25315e-18
2.09094e-18
2.3553e-18
1.89871e-18
2.39909e-18
2.38224e-18
1.6021e-18
3.47621e-18
2.39273e-18
1.91424e-18
1.46058e-18
2.80077e-18
1.46771e-18
2.97291e-18
1.99376e-18
1.72136e-18
2.1367e-18
1.49903e-18
2.87859e-18
2.7275e-18
2.28095e-18
1.93126e-18
1.02428e-18
1.78804e-18
1.88367e-18
2.23971e-18
1.62946e-18
2.61174e-18
1.80104e-18
3.89857e-18
1.76757e-18
1.88284e-18
2.07291e-18
1.65468e-18
2.10025e-18
2.51902e-18
2.96128e-18
1.39372e-18
2.7732e-18
2.82724e-18
2.55166e-18
2.63265e-18
2.03322e-18
2.15485e-18
1.98173e-18
2.42762e-18
3.042e-18
2.21957e-18
1.18765e-18
1.89403e-18
3.418e-18
1.66979e-18
1.44342e-18
2.54148e-18
1.39926e-18
1.78715e-18
1.68455e-18
2.21498e-18
2.69751e-18
2.83624e-18
2.88294e-18
2.33376e-18
1.64268e-18
2.9421e-18
1.71191e-18
1.54217e-18
1.97191e-18
2.5962e-18
2.61864e-18
2.5956e-18
2.36663e-18
2.44649e-18
3.05326e-18
1.82642e-18
1.89771e-18
1.31399e-18
2.23327e-18
1.72377e-18
2.49385e-18
2.26107e-18
3.32126e-18
1.97811e-18
4.19253e-18
3.08845e-18
1.67663e-18
2.27109e-18
2.05307e-18
1.86889e-18
2.10813e-18
2.96927e-18
2.79731e-18
2.36143e-18
1.83135e-18
2.33675e-18
2.65382e-18
1.72387e-18
1.82309e-18
2.16e-18
2.02086e-18
2.27512e-18
2.03409e-18
2.3065e-18
2.28644e-18
2.65071e-18
1.47445e-18
1.96191e-18
1.83463e-18
1.31724e-18
3.86256e-18
2.64962e-18
2.23114e-18
3.55618e-18
2.2436e-18
1.88675e-18
2.96396e-18
1.08474e-18
2.07534e-18
1.30224e-18
2.41354e-18
2.14179e-18
3.34007e-18
2.40845e-18
2.20279e-18
2.2418e-18
2.26964e-18
1.87747e-18
1.68922e-18
1.85421e-18
1.57734e-18
2.43661e-18
2.61525e-18
1.70614e-18
3.16736e-18
1.88816e-18
2.1441e-18
2.8311e-18
2.24337e-18
1.71506e-18
2.68758e-18
2.71464e-18
1.80037e-18
2.41755e-18
3.4757e-18
2.41423e-18
2.38893e-18
2.61266e-18
1.84447e-18
1.47949e-18
2.59162e-18
2.45151e-18
2.67316e-18
1.77205e-18
1.58563e-18
1.74553e-18
2.6189e-18
2.36721e-18
1.78481e-18
2.5309e-18
1.92704e-18
1.93113e-18
1.18596e-18
2.51712e-18
1.88453e-18
1.92631e-18
2.36741e-18
1.4594e-18
1.866e-18
9.17776e-19
1.75341e-18
1.85574e-18
3.93079e-18
1.91114e-18
1.14821e-18
2.79038e-18
2.61171e-18
2.93967e-18
2.67347e-18
1.66363e-18
1.78146e-18
1.40723e-18
1.34115e-18
1.87564e-18
1.75374e-18
2.47875e-18
2.08419e-18
2.48145e-18
3.00637e-18
2.98699e-18
2.1399e-18
3.16461e-18
3.18888e-18
2.34139e-18
2.74677e-18
2.42093e-18
2.88527e-18
1.89367e-18
2.93208e-18
2.46434e-18
1.9931e-18
1.99812e-18
1.09139e-18
1.81253e-18
2.00237e-18
2.21472e-18
2.81605e-18
1.66815e-18
2.01802e-18
2.46376e-18
2.17393e-18
1.99179e-18
1.76977e-18
1.63645e-18
2.48846e-18
2.8777e-18
1.91424e-18
1.9621e-18
2.94362e-18
1.16906e-18
2.77531e-18
2.63394e-18
2.46153e-18
1.48865e-18
2.55321e-18
1.84919e-18
2.00226e-18
1.80975e-18
2.83787e-18
3.01514e-18
2.35934e-18
2.37907e-18
2.83743e-18
2.30502e-18
2.71838e-18
2.34467e-18
1.40974e-18
3.76479e-18
1.21112e-18
2.02142e-18
2.21286e-18
1.3832e-18
1.58508e-18
2.16036e-18
2.39247e-18
1.70337e-18
1.87539e-18
3.2566e-18
2.82793e-18
2.27377e-18
1.75786e-18
2.5392e-18
2.56866e-18
2.0737e-18
2.11595e-18
1.92845e-18
2.20678e-18
4.85059e-18
4.44814e-18
5.85726e-18
4.02928e-18
6.61355e-18
4.89656e-18
3.77549e-18
4.28108e-18
4.09912e-18
2.9738e-18
2.89556e-18
4.70901e-18
5.85685e-18
5.29751e-18
3.25633e-18
4.31643e-18
4.69095e-18
4.78036e-18
5.52215e-18
3.66147e-18
2.51777e-18
2.58883e-18
4.32915e-18
3.68901e-18
4.19644e-18
4.5392e-18
3.42934e-18
6.45686e-18
4.23843e-18
3.68713e-18
3.6665e-18
4.30682e-18
5.45964e-18
2.76115e-18
3.78381e-18
4.7358e-18
2.96374e-18
2.88179e-18
3.8131e-18
3.80363e-18
2.86065e-18
5.07386e-18
3.21384e-18
6.37123e-18
3.56501e-18
3.16141e-18
4.12026e-18
3.59283e-18
5.82224e-18
6.48025e-18
2.45579e-18
3.03329e-18
6.27241e-18
2.93641e-18
3.17514e-18
6.76982e-18
5.87991e-18
3.74241e-18
5.94243e-18
3.3464e-18
3.29157e-18
5.23919e-18
4.99502e-18
3.25873e-18
3.9465e-18
3.4824e-18
2.36169e-18
5.35635e-18
3.07557e-18
5.40076e-18
4.16295e-18
2.89675e-18
3.94645e-18
3.89729e-18
4.70411e-18
3.85686e-18
4.43385e-18
4.12556e-18
3.36607e-18
4.50698e-18
6.62963e-18
3.64195e-18
5.02676e-18
5.08482e-18
3.89781e-18
4.13315e-18
2.69558e-18
5.14866e-18
3.68954e-18
5.87229e-18
4.05995e-18
6.3859e-18
5.43286e-18
3.18488e-18
1.95792e-18
4.82011e-18
4.49142e-18
4.26734e-18
3.88869e-18
3.65569e-18
4.34338e-18
3.62836e-18
4.46832e-18
4.22268e-18
5.22665e-18
3.4835e-18
2.59386e-18
4.14527e-18
4.18513e-18
2.84215e-18
3.3492e-18
4.56511e-18
4.4735e-18
4.37235e-18
2.04539e-18
4.79986e-18
3.20457e-18
4.74442e-18
3.90234e-18
2.74119e-18
4.25642e-18
6.64883e-18
3.97101e-18
3.34616e-18
4.84561e-18
4.99142e-18
2.36275e-18
4.27325e-18
2.94398e-18
4.4865e-18
4.24977e-18
5.44518e-18
4.43324e-18
4.38695e-18
4.08738e-18
4.32372e-18
3.27815e-18
3.27405e-18
4.03096e-18
4.7288e-18
3.01565e-18
4.30011e-18
5.08981e-18
5.89085e-18
5.67008e-18
4.97293e-18
5.65664e-18
4.38494e-18
3.65032e-18
5.19464e-18
5.71225e-18
5.39793e-18
5.84519e-18
4.78748e-18
3.92443e-18
5.65091e-18
3.19504e-18
2.25902e-18
3.5923e-18
4.98563e-18
5.43738e-18
3.88357e-18
4.92165e-18
4.83037e-18
4.25409e-18
3.72548e-18
4.32788e-18
4.03629e-18
3.01458e-18
5.03349e-18
5.05152e-18
3.44917e-18
5.22685e-18
3.93626e-18
5.29252e-18
5.20875e-18
6.83312e-18
4.98285e-18
2.97781e-18
3.69582e-18
2.65913e-18
3.23593e-18
2.92233e-18
5.08162e-18
4.62401e-18
3.56669e-18
3.72118e-18
2.69485e-18
5.87611e-18
4.30045e-18
5.96154e-18
4.32285e-18
2.33028e-18
2.6032e-18
5.02412e-18
3.49945e-18
4.89853e-18
5.6896e-18
4.74944e-18
3.83415e-18
4.05996e-18
4.71751e-18
3.97104e-18
4.04725e-18
2.96617e-18
3.83138e-18
4.47025e-18
3.65355e-18
3.7235e-18
4.72304e-18
3.41424e-18
2.74435e-18
3.01528e-18
3.17797e-18
4.34702e-18
4.52533e-18
3.90427e-18
4.2812e-18
2.85924e-18
4.72339e-18
3.84194e-18
2.43997e-18
4.73897e-18
3.88206e-18
4.88507e-18
5.92216e-18
7.82991e-18
5.40173e-18
4.47579e-18
3.99818e-18
3.71613e-18
4.49136e-18
3.54586e-18
4.84113e-18
5.26175e-18
3.67752e-18
3.76241e-18
5.17307e-18
4.90825e-18
3.71998e-18
6.9799e-18
2.90476e-18
2.80419e-18
3.65741e-18
3.79007e-18
4.55721e-18
4.95365e-18
3.01695e-18
3.359e-18
2.16655e-18
4.65206e-18
2.91901e-18
4.78913e-18
5.73352e-18
3.57808e-18
4.41842e-18
9.28089e-18
5.02287e-18
6.73219e-18
7.07215e-18
8.94588e-18
9.3379e-18
7.01841e-18
6.31426e-18
8.67177e-18
7.3499e-18
5.21207e-18
7.94692e-18
8.66674e-18
7.70081e-18
7.42208e-18
5.67342e-18
9.33509e-18
6.87372e-18
6.90177e-18
7.29816e-18
8.72066e-18
1.20403e-17
7.88383e-18
7.74531e-18
9.20648e-18
3.97193e-18
9.44011e-18
9.3506e-18
7.80162e-18
1.01926e-17
6.01e-18
6.72793e-18
3.80956e-18
8.93227e-18
6.73079e-18
7.113e-18
5.49536e-18
9.68211e-18
7.73786e-18
7.38219e-18
6.82857e-18
6.1452e-18
7.89113e-18
6.64223e-18
6.0291e-18
9.69123e-18
8.9081e-18
1.05476e-17
5.84122e-18
1.14281e-17
6.38131e-18
1.10184e-17
5.46465e-18
9.42693e-18
5.4109e-18
5.44541e-18
6.11255e-18
8.15681e-18
1.07036e-17
6.71608e-18
6.19081e-18
5.1209e-18
8.16732e-18
1.09695e-17
6.52205e-18
6.85358e-18
6.03584e-18
9.74313e-18
6.89079e-18
3.27311e-18
3.79807e-18
1.09546e-17
7.08846e-18
7.92026e-18
7.68569e-18
5.08842e-18
6.11215e-18
1.23173e-17
5.02676e-18
7.26073e-18
9.88128e-18
9.30076e-18
8.83121e-18
7.74503e-18
3.78214e-18
7.50662e-18
1.03077e-17
7.50307e-18
6.95578e-18
9.83663e-18
1.02375e-17
1.47445e-17
8.16017e-18
9.08781e-18
4.60782e-18
7.9006e-18
7.26673e-18
8.18035e-18
8.08161e-18
5.38943e-18
7.73292e-18
6.35137e-18
8.34987e-18
7.99833e-18
8.34313e-18
7.98889e-18
6.5572e-18
7.42863e-18
2.1797e-18
1.016e-17
8.37111e-18
9.97651e-18
7.63723e-18
1.07609e-17
8.04316e-18
6.33109e-18
4.14685e-18
7.52434e-18
5.13465e-18
4.4784e-18
1.1922e-17
1.08491e-17
7.90615e-18
7.60889e-18
6.00423e-18
9.11252e-18
5.10873e-18
4.30014e-18
7.47852e-18
5.15739e-18
8.94115e-18
4.21083e-18
1.06274e-17
9.92422e-18
5.1664e-18
6.86203e-18
4.69462e-18
7.02934e-18
9.26253e-18
8.79969e-18
7.87368e-18
9.7465e-18
1.12736e-17
1.08624e-17
7.06816e-18
8.39929e-18
5.33668e-18
5.4085e-18
7.94988e-18
8.73224e-18
7.58246e-18
7.13717e-18
1.02137e-17
8.47221e-18
8.53469e-18
8.61712e-18
7.70852e-18
7.03936e-18
8.02582e-18
9.65719e-18
3.97001e-18
9.36553e-18
7.07302e-18
8.17626e-18
6.1661e-18
6.56835e-18
1.2873e-17
7.85809e-18
9.86252e-18
5.42801e-18
5.34522e-18
8.02296e-18
4.1393e-18
5.43e-18
7.77536e-18
6.95206e-18
8.93437e-18
9.00261e-18
5.87356e-18
8.12641e-18
6.22182e-18
8.36505e-18
7.72887e-18
7.30642e-18
7.63298e-18
6.96561e-18
7.55538e-18
7.63808e-18
8.87699e-18
6.37988e-18
7.27329e-18
7.00307e-18
5.22681e-18
4.06064e-18
9.83012e-18
7.28258e-18
7.11099e-18
8.13714e-18
6.54742e-18
5.27466e-18
6.96495e-18
6.03961e-18
1.01486e-17
8.12051e-18
6.96454e-18
7.99157e-18
8.11196e-18
1.07717e-17
6.41364e-18
8.10796e-18
6.16166e-18
7.83104e-18
3.31185e-18
6.29533e-18
7.42575e-18
8.13742e-18
6.9775e-18
8.14148e-18
1.29346e-17
8.79587e-18
7.53992e-18
6.68611e-18
5.95259e-18
7.57994e-18
9.27178e-18
7.37564e-18
7.62476e-18
5.1159e-18
9.74028e-18
5.85651e-18
7.22844e-18
1.04228e-17
7.07207e-18
8.50476e-18
8.95195e-18
9.1479e-18
5.99729e-18
1.21379e-17
5.25197e-18
7.68454e-18
7.4988e-18
8.09874e-18
6.07309e-18
7.68788e-18
4.92132e-18
5.48992e-18
7.15265e-18
7.96172e-18
4.23571e-18
1.12522e-17
7.65983e-18
7.14516e-18
4.00579e-18
6.18445e-18
5.97294e-18
5.34782e-18
1.46865e-17
1.62667e-17
1.63705e-17
1.23734e-17
1.85326e-17
2.13274e-17
9.92473e-18
7.66673e-18
1.35729e-17
1.08655e-17
1.60095e-17
1.57291e-17
1.87993e-17
1.65408e-17
1.51486e-17
1.64364e-17
1.61614e-17
1.29534e-17
1.33776e-17
1.7639e-17
9.93031e-18
9.46462e-18
1.1216e-17
1.52061e-17
1.16837e-17
1.26733e-17
1.25848e-17
1.61885e-17
1.25106e-17
1.709e-17
9.04159e-18
1.75261e-17
1.39823e-17
1.67115e-17
1.28095e-17
1.03683e-17
1.54092e-17
2.16899e-17
1.32225e-17
1.56689e-17
1.97095e-17
1.56091e-17
1.24429e-17
1.629e-17
1.4563e-17
8.41904e-18
1.23017e-17
1.8462e-17
1.03416e-17
1.28223e-17
1.60559e-17
1.70784e-17
1.44424e-17
1.07604e-17
1.25937e-17
1.15884e-17
6.63275e-18
9.02917e-18
2.42843e-17
1.42808e-17
2.05794e-17
1.46937e-17
1.09415e-17
1.1047e-17
1.8324e-17
1.58089e-17
1.64648e-17
2.03291e-17
2.11257e-17
1.21097e-17
9.72468e-18
9.68347e-18
1.37159e-17
1.84722e-17
1.4511e-17
8.41032e-18
1.64623e-17
1.34948e-17
1.46041e-17
2.18615e-17
1.64993e-17
1.30947e-17
1.30805e-17
1.51657e-17
1.41729e-17
1.58638e-17
1.7219e-17
1.88512e-17
8.42788e-18
1.09275e-17
1.4046e-17
1.03315e-17
1.47418e-17
1.21669e-17
1.013e-17
9.37297e-18
1.54542e-17
1.08873e-17
1.72212e-17
1.23255e-17
1.10987e-17
1.87002e-17
1.25511e-17
9.28825e-18
1.82459e-17
1.30955e-17
1.14171e-17
1.47976e-17
6.49621e-18
1.35747e-17
1.59428e-17
1.17915e-17
1.27218e-17
1.39261e-17
1.14467e-17
1.5057e-17
1.26855e-17
1.45214e-17
1.29766e-17
1.7795e-17
1.88724e-17
2.13708e-17
1.72879e-17
1.62412e-17
1.2014e-17
2.23904e-17
1.02653e-17
1.31151e-17
1.65797e-17
1.76232e-17
1.01648e-17
1.59997e-17
1.69861e-17
1.43738e-17
1.13594e-17
1.56875e-17
1.35044e-17
1.30585e-17
1.03285e-17
1.46213e-17
1.35702e-17
1.80821e-17
1.9692e-17
1.56775e-17
1.77087e-17
2.5535e-17
1.49405e-17
1.00289e-17
2.4605e-17
1.66104e-17
1.80358e-17
1.82382e-17
1.91815e-17
1.00903e-17
1.01888e-17
1.60537e-17
1.56849e-17
1.60914e-17
7.70228e-18
1.80796e-17
1.6246e-17
1.49813e-17
1.12783e-17
2.50126e-17
1.81585e-17
1.62489e-17
1.15532e-17
1.49451e-17
7.6805e-18
9.80795e-18
9.36616e-18
1.56724e-17
1.51059e-17
1.66449e-17
1.94729e-17
1.47283e-17
1.26187e-17
1.66403e-17
1.3409e-17
1.76925e-17
1.81914e-17
1.55218e-17
1.64314e-17
2.30541e-17
1.68942e-17
1.48906e-17
1.49232e-17
1.74409e-17
1.31042e-17
1.84949e-17
9.52242e-18
1.17794e-17
1.33763e-17
1.42638e-17
1.43021e-17
1.93965e-17
1.84914e-17
1.58346e-17
1.44194e-17
1.46778e-17
1.33619e-17
1.4243e-17